<?xml version="1.0"?>
<VTKFile type="UnstructuredGrid"  version="0.1"  >
<UnstructuredGrid>
<Piece  NumberOfPoints="8298" NumberOfCells="16192">
<Points>
<DataArray  type="Float64"  NumberOfComponents="3"  format="ascii">-2.799633570821959 0.2468875335020241 0  -2.799633570821959 0.1531124664979767 0  -2.796702674457134 0.05938321259017981 0  -2.79084374546177 -0.03420864679214375 0  -2.782062508506328 -0.127571664465879 0  -2.770367543603953 -0.2206146168456579 0  -2.755770277727077 -0.3132465930770498 0  -2.738284973642296 -0.4053770838641738 0  -2.717928715974439 -0.4969160699049485 0  -2.694721394513439 -0.5877741098475942 0  -2.668685684780322 -0.6778624276824097 0  -2.639847025871302 -0.7670929994834608 0  -2.608233595601625 -0.8553786394154328 0  -2.573876282973453 -0.9426330849215694 0  -2.53680865799469 -1.028771081009518 0  -2.497066938878243 -1.113708463552679 0  -2.45468995665375 -1.197362241525693 0  -2.409719117226371 -1.279650678093722 0  -2.362198360919712 -1.360493370476254 0  -2.312174119542402 -1.439811328507446 0  -2.259695271020274 -1.517527051816215 0  -2.204813091638491 -1.593564605550667 0  -2.14758120594027 -1.667849694572886 0  -2.088055534331146 -1.740309736051596 0  -2.026294238440004 -1.810873930381724 0  -1.962357664290228 -1.879473330361635 0  -1.896308283336525 -1.946040908560383 0  -1.828210631425014 -2.010511622809196 0  -1.758131245736229 -2.072822479753199 0  -1.686138599772655 -2.132912596401256 0  -1.612303036454309 -2.190723259613812 0  -1.536696699387734 -2.246197983470624 0  -1.459393462375598 -2.299282564462275 0  -1.380468857235704 -2.349925134451611 0  -1.300000000000001 -2.398076211353315 0  -1.218065515565697 -2.443688747482085 0  -1.13474546087205 -2.486718175522222 0  -1.050121246677961 -2.527122452073676 0  -0.9642755580167495 -2.564862098732012 0  -0.8772922734058739 -2.599900240662157 0  -0.7892563828904995 -2.632202642628243 0  -0.7002539050010244 -2.661737742444336 0  -0.6103718027056657 -2.688476681813369 0  -0.5196978984402927 -2.712393334524138 0  -0.4283207882984347 -2.733464331978835 0  -0.3363297554653894 -2.751669086026148 0  -0.2438146829809907 -2.766989809077625 0  -0.1508659659162482 -2.779411531487662 0  -0.05757442304969845 -2.788922116180115 0  0.03596879187024191 -2.795512270507249 0  0.1296722791902186 -2.799175555329447 0  0.2234444826571517 -2.799908391306797 0  0.3171937788764557 -2.797710062396404 0  0.4108285668358796 -2.79258271655203 0  0.504257357407436 -2.784531363625359 0  0.5973888627400625 -2.773563870470947 0  0.6901320854555892 -2.759690953259639 0  0.7823964075608818 -2.742926167007963 0  0.8740916789893147 -2.723285892333722 0  0.9651283056850286 -2.700789319450752 0  1.055417337143921 -2.675458429418447 0  1.144870553325831 -2.647317972664405 0  1.233400550852996 -2.61639544480116 0  1.320920828410577 -2.582721059760634 0  1.407345871265759 -2.546327720272568 0  1.49259123482291 -2.507250985715766 0  1.576573627133108 -2.465529037373556 0  1.659210990277434 -2.421202641127456 0  1.740422580544525 -2.374315107625433 0  1.820129047324026 -2.324912249963737 0  1.898252510638859 -2.27304233892362 0  1.974716637240567 -2.218756055806689 0  2.049446715193374 -2.162106442914975 0  2.122369726874076 -2.10314885172411 0  2.193414420316464 -2.041940888800232 0  2.262511378830517 -1.978542359513499 0  2.329593088828409 -1.913015209603158 0  2.394594005791008 -1.845423464651312 0  2.457450618310421 -1.7758331675245 0  2.518101510146034 -1.704312313844207 0  2.576487420233388 -1.630930785549377 0  2.632551300587255 -1.55576028261584 0  2.686238372042365 -1.478874252999352 0  2.737496177777292 -1.400347820870711 0  2.786274634569219 -1.320257713213078 0  2.832526081729493 -1.238682184853195 0  2.876205327672159 -1.155700941999803 0  2.917269694069972 -1.071395064363898 0  2.95567905755474 -0.9858469259369949 0  2.99139588892126 -0.8991401145047395 0  3.024385289796534 -0.8113593499745531 0  3.054615026738436 -0.7225904015971107 0  3.082055562730521 -0.632920004162502 0  3.106680086042191 -0.5424357732529863 0  3.128464536426036 -0.4512261196351431 0  3.147387628626728 -0.3593801628750458 0  3.163430873178528 -0.2669876442609028 0  3.176578594471056 -0.1741388391182 0  3.186817946065695 -0.08092446860305114 0  3.194138923247648 0.01256438894005352 0  3.198534372801398 0.1062363869695262 0  3.2 0.2 0  3.198534372801398 0.2937636130304729 0  3.194138923247648 0.3874356110599479 0  3.186817946065695 0.4809244686030523 0  3.176578594471056 0.5741388391181983 0  3.163430873178529 0.6669876442609008 0  3.147387628626729 0.7593801628750434 0  3.128464536426036 0.8512261196351407 0  3.106680086042191 0.9424357732529862 0  3.082055562730521 1.032920004162502 0  3.054615026738436 1.12259040159711 0  3.024385289796534 1.211359349974552 0  2.99139588892126 1.299140114504738 0  2.95567905755474 1.385846925936996 0  2.917269694069972 1.471395064363899 0  2.87620532767216 1.555700941999801 0  2.832526081729494 1.638682184853194 0  2.78627463456922 1.720257713213076 0  2.737496177777293 1.800347820870711 0  2.686238372042365 1.878874252999351 0  2.632551300587255 1.95576028261584 0  2.576487420233388 2.030930785549376 0  2.518101510146034 2.104312313844206 0  2.45745061831042 2.175833167524501 0  2.394594005791007 2.245423464651314 0  2.32959308882841 2.313015209603157 0  2.262511378830518 2.378542359513498 0  2.193414420316466 2.441940888800231 0  2.122369726874079 2.503148851724109 0  2.049446715193374 2.562106442914976 0  1.974716637240567 2.61875605580669 0  1.89825251063886 2.67304233892362 0  1.820129047324027 2.724912249963737 0  1.740422580544526 2.774315107625433 0  1.659210990277433 2.821202641127456 0  1.576573627133107 2.865529037373557 0  1.492591234822911 2.907250985715765 0  1.407345871265761 2.946327720272568 0  1.32092082841058 2.982721059760633 0  1.233400550852999 3.016395444801159 0  1.144870553325831 3.047317972664406 0  1.055417337143922 3.075458429418447 0  0.9651283056850295 3.100789319450752 0  0.8740916789893154 3.123285892333722 0  0.7823964075608831 3.142926167007963 0  0.6901320854555906 3.15969095325964 0  0.5973888627400645 3.173563870470947 0  0.5042573574074349 3.184531363625359 0  0.410828566835879 3.19258271655203 0  0.3171937788764585 3.197710062396405 0  0.2234444826571517 3.199908391306798 0  0.1296722791902187 3.199175555329448 0  0.03596879187024196 3.195512270507249 0  -0.05757442304969768 3.188922116180115 0  -0.1508659659162468 3.179411531487663 0  -0.24381468298099 3.166989809077625 0  -0.336329755465388 3.151669086026148 0  -0.4283207882984327 3.133464331978836 0  -0.5196978984402931 3.112393334524138 0  -0.6103718027056664 3.088476681813369 0  -0.7002539050010217 3.061737742444337 0  -0.7892563828904995 3.032202642628244 0  -0.877292273405873 2.999900240662158 0  -0.9642755580167495 2.964862098732012 0  -1.05012124667796 2.927122452073677 0  -1.134745460872048 2.886718175522224 0  -1.218065515565696 2.843688747482085 0  -1.299999999999999 2.798076211353316 0  -1.380468857235702 2.749925134451613 0  -1.459393462375598 2.699282564462275 0  -1.536696699387734 2.646197983470625 0  -1.612303036454307 2.590723259613814 0  -1.686138599772654 2.532912596401257 0  -1.758131245736229 2.4728224797532 0  -1.828210631425013 2.410511622809197 0  -1.896308283336525 2.346040908560383 0  -1.962357664290227 2.279473330361637 0  -2.026294238440003 2.210873930381725 0  -2.088055534331145 2.140309736051596 0  -2.14758120594027 2.067849694572887 0  -2.204813091638492 1.993564605550666 0  -2.259695271020273 1.917527051816217 0  -2.312174119542401 1.839811328507448 0  -2.362198360919713 1.760493370476253 0  -2.40971911722637 1.679650678093722 0  -2.45468995665375 1.597362241525694 0  -2.497066938878244 1.513708463552679 0  -2.53680865799469 1.42877108100952 0  -2.573876282973452 1.342633084921572 0  -2.608233595601625 1.255378639415432 0  -2.639847025871302 1.167092999483461 0  -2.668685684780322 1.077862427682409 0  -2.694721394513439 0.9877741098475963 0  -2.717928715974439 0.8969160699049505 0  -2.738284973642296 0.8053770838641732 0  -2.755770277727077 0.7132465930770504 0  -2.770367543603953 0.6206146168456573 0  -2.782062508506328 0.5275716644658798 0  -2.79084374546177 0.4342086467921458 0  -2.796702674457134 0.3406167874098196 0  0.2000000000000003 0.2000000000000006 0  -0.9591923423720814 -0.7522724703949746 0  0.605235398044117 -1.244414766145184 0  1.659142582126225 -0.1485006018821721 0  1.143184503327098 1.366598790145883 0  -0.3605288789174127 1.591530495672233 0  -1.348054202368631 0.595410153422852 0  -0.355988428393567 -1.668937585975542 0  2.045791540844914 0.8285733215186892 0  0.4925860939724619 2.1559964831792 0  1.625540449713301 -1.170898716472771 0  -1.792737385056673 -0.3089928982790732 0  -1.321514222662743 1.556661578270337 0  -0.1357207252994473 -0.8671930054101189 0  1.039467452420644 0.4858756436999032 0  -0.6592049186741196 0.06422886935498873 0  -1.148652348113522 -1.533744299976489 0  0.3648084405230466 -2.000513848345766 0  2.405272343188128 0.121279537611271 0  1.898890087911668 1.608259737415167 0  -0.334115881394652 0.7935101663970392 0  0.4341837285190856 1.003624596151143 0  1.311762063114028 2.125628379241093 0  -0.2612185641683356 2.368353895559189 0  2.235073228285024 -0.6791803773047853 0  1.126558250899582 -1.821274189121348 0  1.074561410363684 -0.6410390004614104 0  -2.058004194058147 0.4123760603336435 0  -1.627655296509362 -1.003912586557615 0  -1.854232358270788 1.090377736131769 0  -0.9510780350003785 2.17113550950357 0  -0.8266006594166613 1.176657106078548 0  0.4132443665191795 -0.4534855531795464 0  -1.200307658422286 -0.200326029364957 0  0.5898998772262123 1.573398743818983 0  0.8755040087066551 -0.08323420865263531 0  -0.1658533283137335 -0.2713112912204078 0  -0.1987087986414652 -2.207626146791168 0  -0.8207915020607315 -2.002800091312537 0  2.3939888266164 1.268665241087696 0  2.588124881026897 0.6592136431742199 0  -0.5979210720000484 -1.17134012897056 0  0.2574978593596872 2.
[...]
<PointData  Scalars="f_20"> 
<DataArray  type="Float64"  Name="f_20"  format="ascii">1.3340808493469449e+01  1.3228278413064592e+01  1.3152124947128279e+01  1.3112319506129129e+01  1.3108695389960305e+01  1.3140948754152067e+01  1.3208640107827105e+01  1.3311196337241851e+01  1.3447913246707804e+01  1.3617958606669848e+01  1.3820375696741886e+01  1.4054087329571157e+01  1.4317900339529571e+01  1.4610510518419499e+01  1.4930507978641300e+01  1.5276382922605364e+01  1.5646531795591086e+01  1.6039263797763404e+01  1.6452807729661288e+01  1.6885319144176812e+01  1.7334887776853435e+01  1.7799545225252039e+01  1.8277272847168476e+01  1.8766009846638859e+01  1.9263661515943618e+01  1.9768107601220564e+01  2.0277210758822278e+01  2.0788825069208045e+01  2.1300804574944628e+01  2.1811011809304723e+01  2.2317326281998682e+01  2.2817652888751653e+01  2.3309930211745282e+01  2.3792138678379921e+01  2.4262308546376012e+01  2.4718527683921998e+01  2.5158949114387418e+01  2.5581798296049080e+01  2.5985380108324456e+01  2.6368085517163067e+01  2.6728397893510717e+01  2.7064898960127202e+01  2.7376274343500825e+01  2.7661318709156170e+01  2.7918940460290081e+01  2.8148165981387326e+01  2.8348143410255421e+01  2.8518145923771620e+01  2.8657574524545208e+01  2.8765960317658383e+01  2.8842966268652145e+01  2.8888388435960579e+01  2.8902156673060205e+01  2.8884334797683771e+01  2.8835120227539424e+01  2.8754843084071208e+01  2.8643964767884569e+01  2.8503076011535157e+01  2.8332894417429994e+01  2.8134261490612211e+01  2.7908139178182637e+01  2.7655605929048519e+01  2.7377852289573255e+01  2.7076176052522158e+01  2.6751976978454266e+01  2.6406751110388214e+01  2.6042084704168168e+01  2.5659647798465123e+01  2.5261187449764378e+01  2.4848520659007008e+01  2.4423527017764819e+01  2.3988141102931259e+01  2.3544344649900253e+01  2.3094158535076872e+01  2.2639634599315059e+01  2.2182847344505291e+01  2.1725885536036124e+01  2.1270843744227186e+01  2.0819813858074568e+01  2.0374876604762719e+01  1.9938093108379014e+01  1.9511496521118403e+01  1.9097083759985985e+01  1.8696807381597331e+01  1.8312567627139707e+01  1.7946204668895888e+01  1.7599491088947410e+01  1.7274124619769069e+01  1.6971721175405943e+01  1.6693808200789803e+01  1.6441818365511054e+01  1.6217083627017075e+01  1.6020829686765332e+01  1.5854170861324810e+01  1.5718105388798334e+01  1.5613511189236860e+01  1.5541142095943021e+01  1.5501624572720011e+01  1.5495454930222429e+01  1.5522997052613956e+01  1.5584480643741047e+01  1.5680000000000000e+01  1.5809513315014181e+01  1.5972842519157831e+01  1.6169673654869754e+01  1.6399557786603687e+01  1.6661912442169182e+01  1.6956023580136964e+01  1.7281048075922669e+01  1.7636016717131980e+01  1.8019837696755332e+01  1.8431300590850142e+01  1.8869080805449968e+01  1.9331744475601170e+01  1.9817753797654738e+01  2.0325472774242435e+01  2.0853173349746925e+01  2.1399041912543545e+01  2.1961186138851076e+01  2.2537642151687038e+01  2.3126381967184429e+01  2.3725321199396411e+01  2.4332326993697521e+01  2.4945226157988813e+01  2.5561813460133379e+01  2.6179860059390350e+01  2.6797122039083703e+01  2.7411349007337677e+01  2.8020292732435607e+01  2.8621715779214732e+01  2.9213400112896203e+01  2.9793155636867326e+01  3.0358828631181510e+01  3.0908310058919980e+01  3.1439543708065422e+01  3.1950534137171026e+01  3.2439354393864718e+01  3.2904153476106046e+01  3.3343163507108429e+01  3.3754706595947674e+01  3.4137201357096032e+01  3.4489169063443100e+01  3.4809239408786915e+01  3.5096155857294029e+01  3.5348780559030921e+01  3.5566098812354269e+01  3.5747223055707707e+01  3.5891396373201481e+01  3.5997995500240293e+01  3.6066533317408648e+01  3.6096660822811579e+01  3.6088168575096901e+01  3.6040987601442829e+01  3.5955189766875783e+01  3.5830987603377494e+01  3.5668733599342019e+01  3.5468918952041726e+01  3.5232171787850099e+01  3.4959254857039305e+01  3.4651062712014102e+01  3.4308618379852916e+01  3.3933069541993618e+01  3.3525684235818510e+01  3.3087846094752258e+01  3.2621049145281290e+01  3.2126892181025916e+01  3.1607072735640781e+01  3.1063380677879021e+01  3.0497691453623982e+01  2.9911959001063806e+01  2.9308208366454746e+01  2.8688528049081157e+01  2.8055062105071855e+01  2.7410002040667756e+01  2.6755578526352323e+01  2.6094052963950126e+01  2.5427708939367200e+01  2.4758843594088511e+01  2.4089758948859760e+01  2.3422753213162686e+01  2.2760112114143418e+01  2.2104100278573632e+01  2.1456952701212359e+01  2.0820866332594697e+01  2.0197991818804290e+01  1.9590425425188343e+01  1.9000201175252755e+01  1.8429283235131791e+01  1.7879558573064152e+01  1.7352829922231280e+01  1.6850809074126609e+01  1.6375110528331465e+01  1.5927245523179668e+01  1.5508616470304085e+01  1.5120511814479690e+01  1.4764101338515866e+01  1.4440431931212027e+01  1.4150423834581645e+01  1.3894867384678417e+01  1.3674420258430279e+01  1.3489605236911846e+01  5.4800588564153383e+00  7.9360893442650751e+00  1.0330209261632813e+01  8.1392206525618498e+00  1.2228772863083044e+01  1.3047509777616851e+01  8.1996825580410793e+00  1.3801553092158970e+01  1.1564441084028314e+01  1.9506565217212135e+01  1.2073152609921861e+01  8.8195912947357833e+00  1.4335003843819539e+01  7.5946109846419469e+00  7.1094506529309953e+00  5.7661521088088499e+00  1.3695978297450125e+01  1.7458315823605044e+01  1.1149025727359982e+01  1.6684509880684448e+01  7.3193288779038923e+00  8.5299158715042509e+00  2.0594972211887601e+01  2.2214992206737133e+01  1.1697742777812399e+01  1.6539627682844412e+01  7.7066183423846342e+00  1.0063766091685872e+01  1.0991188081523697e+01  1.2324646995075657e+01  2.0365216025203413e+01  1.0155087308922159e+01  6.1079941959192903e+00  6.8816618174825033e+00  1.3094780446936404e+01  6.1053416922673502e+00  5.5676841551449820e+00  1.9979233267288048e+01  1.8027245696120580e+01  1.5878804646638560e+01  1.3321525225107930e+01  9.7931438505100097e+00  2.6485636485675922e+01  2.5339681296174110e+01  1.7156404803580660e+01  1.4628181736333836e+01  9.8025226740257096e+00  1.2238976039296677e+01  9.2788412957042503e+00  6.9669385065045137e+00  9.1417483140248432e+00  1.4990092648623548e+01  1.1657914883123828e+01  8.0126604751888841e+00  1.1339098464916828e+01  1.0496947990728986e+01  1.6485261287770307e+01  2.0106890415254366e+01  9.6601455608951774e+00  1.4357669004758844e+01  1.0683608586963347e+01  6.6219990073312136e+00  2.1900874887512103e+01  2.0764160541769012e+01  1.2564381679126942e+01  1.4754526755064447e+01  8.4262976622611649e+00  1.6006761178146061e+01  8.0884281936385971e+00  6.4782658950350802e+00  6.6781055050553597e+00  8.9802161925129749e+00  2.5543048395688995e+01  5.7006789649019431e+00  6.6846868978147294e+00  1.2496969607652092e+01  1.2710673901747496e+01  7.8261791110426371e+00  1.7699909880643009e+01  1.8121228226855777e+01  1.0281082545400304e+01  2.8275629938338920e+01  9.9448015536780066e+00  1.3499936014346217e+01  2.2358834219303745e+01  1.3302806088975535e+01  1.9155097217808684e+01  1.0329949061862573e+01  1.3629548441347540e+01  2.6316479417074664e+01  2.0268191537351250e+01  8.0208048905312808e+00  6.8634614197525288e+00  1.4510110318702221e+01  9.8296736664885991e+00  1.3644802061482954e+01  1.4215346401515422e+01  6.4587597008178470e+00  1.9740782970623322e+01  1.1338527513296436e+01  7.0433938433683680e+00  1.5735097387213370e+01  1.0515140187193371e+01  1.5174416813833954e+01  9.6904019187453265e+00  1.1404962400388312e+01  1.1087777991067329e+01  8.6371192095338358e+00  9.0485571672476688e+00  2.0253909876267326e+01  2.4355461837899281e+01  5.7226789946300789e+00  1.0841152261486135e+01  1.7123168323391120e+01  1.1970073162434353e+01  1.3316826680411388e+01  1.4491582351119298e+01  9.1728395319404985e+00  1.4963408716650717e+01  1.7832951864293438e+01  6.2591403114791895e+00  6.6627219048179036e+00  5.4353210645898535e+00  9.6862747254694916e+00  1.6165338512199824e+01  1.3425625602963265e+01  1.7601279052449421e+01  2.1490354594420332e+01  1.5698830561038360e+01  9.8289127942951886e+00  1.3529298446067877e+01  2.9240297107464084e+01  9.4610926776759889e+00  9.8381665285524047e+00  5.7564879706474699e+00  2.4160880536875570e+01  1.7384770967871916e+01  1.0291724126694421e+01  1.6547431962482371e+01  1.4000406134394712e+01  2.1854787681960371e+01  2.3277397741584629e+01  2.0434407841417300e+01  9.8677262669034072e+00  9.4994234321222475e+00  1.0801942588233977e+01  1.6859373410663519e+01  1.9993382833258273e+01  5.7240440859898269e+00  1.1640221664364663e+01  1.1619674231623341e+01  8.0671370666479021e+00  2.5630667451398239e+01  1.1922550907960227e+01  5.4207909467600182e+00  7.4579605057541505e+00  1.6912311307292857e+01  1.4964163980525360e+01  1.6461708082315923e+01  7.7172354684043780e+00  1.2273009143012709e+01  6.0558215988769408e+00  1.2439640222598479e+01  9.0113664517379544e+00  7.3316227074944651e+00  6.2194051441641012e+00  7.7948102047467200e+00  1.1536988134630956e+01  1.9402325777982995e+01  1.4430681011470993e+01  2.0641947837602260e+01  6.2396875554678477e+00  2.4154622411150548e+01  1.3010756841127545e+01  7.9219713800656502e+00  1.7629904228959383e+01  9.0218178232192390e+00  2.6191424657947103e+01  1.6321867164128602e+01  1.1593615119221340e+01  8.2386387573192312e+00  2.9005766237489954e+01  2.1224918751686747e+01  6.2946704745532678e+00  2.3648636369834680e+01  1.8768005863624307e+01  1.5697613129350829e+01  1.2149989706847171e+01  1.6170426391270500e+01  3.0765090528321640e+01  3.0717332054144599e+01  2.0716323072574575e+01  1.8904652977582884e+01  1.2787161813988387e+01  1.2457553748966243e+01  7.1257761229377072e+00  1.1838817111937743e+01  8.7956579205332108e+00  7.8003915662352536e+00  2.6849442029962550e+01  1.3292755751349571e+01  5.3209713269111782e+00  2.3162279172746999e+01  1.3840434814497280e+01  1.7467654753521749e+01  6.2900600113983023e+00  2.2405368807373080e+01  2.3702268147075852e+01  8.6756432767066816e+00  1.2947127499226427e+01  7.4579098938566872e+00  1.5533129304712670e+01  7.5185018244758544e+00  2.3868462222472228e+01  7.9898665342832951e+00  1.3099255407415004e+01  1.1425699095378690e+01  1.4783059027750731e+01  1.0313551797434753e+01  9.9859743593092887e+00  1.1714787213189675e+01  2.9454471442345184e+01  1.1503828642975154e+01  6.5878775153262472e+00  1.1137152894810626e+01  1.1162112533155138e+01  1.4111944991600252e+01  1.5462548445491633e+01  1.4135560016817106e+01  1.4277657744599784e+01  1.3253780409177656e+01  1.1148231451028790e+01  1.1462632888995349e+01  2.4276349312106333e+01  2.2175450495500165e+01  1.7170196250882370e+01  1.1120090254174604e+01  1.7210919826957944e+01  2.0273143054081569e+01  1.2082005877191959e+01  6.8365333439454794e+00  1.0335553511704596e+01  8.1593402803353285e+00  2.5401943637538665e+01  2.2185550514834471e+01  1.4400636964030413e+01  6.3567321498289999e+00  5.7227314732770225e+00  9.0664671365008704e+00  7.2463735613187064e+00  1.3377349334217556e+01  8.0748859986617632e+00  8.9441459226528135e+00  1.0188130405020027e+01  5.4610736904765611e+00  1.7222914435729471e+01  6.9462013329738257e+00  9.5068018539083141e+00  2.0563443180381494e+01  1.9163151206583638e+01  1.8667686287909266e+01  1.5727174835155303e+01  1.0865522106545320e+01  1.7196368071957824e+01  1.9128007804955207e+01  1.2656955815478661e+01  1.3166890616690869e+01  1.3763585931965876e+01  1.2180461358955842e+01  1.4212410308094102e+01  1.4488079836944793e+01  1.5133734970700658e+01  1.0925856178201029e+01  7.4981464242609039e+00  5.8193059297730096e+00  2.4136707578107576e+01  2.3450868329790030e+01  1.1566175217916044e+01  9.2210711492787851e+00  9.5223037280585512e+00  2.2602074912367286e+01  6.5653447097240027e+00  1.8953351998314687e+01  1.2431060067085628e+01  5.9385166396010067e+00  1.3452500463355086e+01  7.5738657330325285e+00  1.1959125480377608e+01  1.8953619494856142e+01  1.2491372677948517e+01  1.4327234158465606e+01  2.3433402787928117e+01  9.4210886866395143e+00  8.5357189351280613e+00  7.2829188226795436e+00  1.2504670980951428e+01  3.0594293519544440e+01  8.5420136877932595e+00  3.0822583253281767e+01  2.3494566688237672e+01  9.2011875768163520e+00  6.3303053550464883e+00  9.0493875945795175e+00  9.8866300042947461e+00  1.4051899417750242e+01  2.0528949118651905e+01  1.8291158619719628e+01  9.7395842956467344e+00  8.7366030155051018e+00  9.5400566888525695e+00  1.8546667163205335e+01  7.2377100585060008e+00  6.7019670682482690e+00  1.5398136140831260e+01  1.9174725364985928e+01  7.9181239474823313e+00  1.0452986248111516e+01  8.8616653383450572e+00  2.3277009130363751e+01  6.8467404572833344e+00  9.9012566347771358e+00  1.7112638893623977e+01  7.4479090157141750e+00  8.9155688991025919e+00  8.4321631488267279e+00  2.8785207480871669e+01  8.2411153111128428e+00  5.6243989488907715e+00  2.7331746749850350e+01  1.0938317509074867e+01  1.5279214537118335e+01  1.1279988299845371e+01  1.4587417198944415e+01  2.5118749609392914e+01  2.1675422472433585e+01  1.3702334951972652e+01  1.7467339917540890e+01  1.9683017005453568e+01  2.0850907339203886e+01  6.1310588799455621e+00  6.2038876012375672e+00  1.7130503997842141e+01  1.4576889053703066e+01  8.7303613477874880e+00  1.7059716389091871e+01  1.4736199091648308e+01  1.6574418313340654e+01  1.0230249614976328e+01  1.7161942568354810e+01  2.8268021003133647e+01  2.9674557908838676e+01  1.8406379027406324e+01  1.2181615875023981e+01  1.7392174012373022e+01  8.5069767172240454e+00  2.2488464048406961e+01  1.1958727663567254e+01  1.0924590730579574e+01  1.6052745490409517e+01  5.8732733089987370e+00  8.8655667658724173e+00  1.1294204928717383e+01  1.2792198655555746e+01  1.0265182727441543e+01  9.4951537649230264e+00  7.4530231943980709e+00  3.1853603303187882e+01  2.7334146860050371e+01  2.5105695667796525e+01  1.8906457063994019e+01  1.6256166034472297e+01  1.5917166593039918e+01  1.9356201821529552e+01  1.8050638320183367e+01  8.2882408386987176e+00  5.8097028979897267e+00  9.9003073061738309e+00  7.9025707051097660e+00  1.4211369047068160e+01  1.8677480660362313e+01  1.3010320207110118e+01  1.4558772226619347e+01  2.4476970535674191e+01  8.2314637702011630e+00  1.5333996108946295e+01  1.2304861907021458e+01  1.3918522057837047e+01  1.2191408130282010e+01  2.1412325969022561e+01  1.1829590251858804e+01  1.0459723119483563e+01  9.1240558099497449e+00  1.0118687032034982e+01  7.8081895200554374e+00  6.7196514520879349e+00  6.5595155925747610e+00  6.9727604320426959e+00  1.6084319472600757e+01  1.5219410744704843e+01  6.6195221693786168e+00  7.4225162218666991e+00  1.0593567920377685e+01  1.2070687384648060e+01  1.5707690590919135e+01  6.2116636198040149e+00  1.3111596254614213e+01  1.1798081788617671e+01  2.3993059925415981e+01  2.5275727166745284e+01  7.3633502512028013e+00  1.1241509671429002e+01  1.1398377943846343e+01  9.6059549119590439e+00  1.5267239387030722e+01  1.6696078671606859e+01  7.1105735435712836e+00  1.2015355114436641e+01  9.3829365792280814e+00  1.1472039969711059e+01  1.1487455120430766e+01  1.0209618759326345e+01  6.4763916697383488e+00  1.6871148251086737e+01  1.2780329728377042e+01  2.0055259476526359e+01  2.7362013834878894e+01  2.6126124784877099e+01  1.4916486653404005e+01  1.7709646303833143e+01  1.0786361841191326e+01  1.2040022151960079e+01  2.5885529743797640e+01  5.5711706705586872e+00  1.9963237074545145e+01  2.1025356140246785e+01  1.3751814146446687e+01  8.5716288430242784e+00  9.2322483538645628e+00  3.2229071875292270e+01  1.1010307652855849e+01  1.1878172317523280e+01  7.4684465576668995e+00  8.2512694599892260e+00  6.0374936355497608e+00  5.9049736994443336e+00  8.7573931010603463e+00  1.4521194625681581e+01  1.5111699061835445e+01  5.5714371458850698e+00  1.0904899478037262e+01  9.8718777335275085e+00  1.0122132270149494e+01  1.2139558099722862e+01  1.0836166104018304e+01  1.6311004575472413e+01  1.6979956818743950e+01  1.4063016641032506e+01  6.3884259379892825e+00  9.6914368151005927e+00  7.7294662908475544e+00  1.0322612308887258e+01  5.4168705436694724e+00  1.3255580409177027e+01  6.8295822233520749e+00  6.0333225901141043e+00  1.3675118317648733e+01  1.9005908467675926e+01  1.4446870222757498e+01  2.2644145035093398e+01  2.0145871363782291e+01  1.9772588920999038e+01  1.3790989562079536e+01  1.4284364083517687e+01  8.9087746006389441e+00  1.2199247580359248e+01  1.7221376136987541e+01  5.9023599002321001e+00  2.4834389081590643e+01  5.8178741680950594e+00  7.4478751362774291e+00  2.2989076096759010e+01  2.5838241834594182e+01  2.2086895442605158e+01  1.1573981536261524e+01  1.0766730102995009e+01  8.4301520931186502e+00  2.2795786681785998e+01  2.0639054053957839e+01  6.7817408585099193e+00  5.3588243142007785e+00  1.8490401179636329e+01  1.0253781891723927e+01  9.7647714602281823e+00  1.2011013945075707e+01  1.6427462980198385e+01  1.0463050715578266e+01  1.3994475382047106e+01  1.2712235369390203e+01  1.5291172533703824e+01  1.5503808852905363e+01  2.7520693013025660e+01  1.8408490270514910e+01  8.3064394136785005e+00  2.7397712208968294e+01  2.1546011849849894e+01  1.9003347174779528e+01  1.0717264271294754e+01  1.5592129643571495e+01  1.3503494612434151e+01  1.6059211915775471e+01  1.5737955948871512e+01  1.8716643776593134e+01  8.7916964303716938e+00  2.3129115506330002e+01  1.7589318775632236e+01  1.5360731526902279e+01  1.5836813710336527e+01  8.4943654930123085e+00  9.5313341964701266e+00  9.7866068375716253e+00  1.5174504079523093e+01  2.4697122122513797e+01  1.2404055418547289e+01  1.4395429163319054e+01  1.5617782836703034e+01  2.1805862243469385e+01  1.2858736512004816e+01  1.2584668451287099e+01  1.3018933506188445e+01  1.3994083350408648e+01  2.0835040660439425e+01  1.4365263806841343e+01  1.3535725440650758e+01  8.4216511585791665e+00  1.0920696759780991e+01  1.0436858476505142e+01  1.3039819838805004e+01  2.1294741635666021e+01  2.0676065226018302e+01  1.2580966364090962e+01  3.2033214412200266e+01  2.1810449000873710e+01  6.0599146982557714e+00  1.3435967455459449e+01  2.4377690611599252e+01  1.7282482829862985e+01  1.9767046289068976e+01  1.8194577935004553e+01  1.9086246449647177e+01  1.4863195439719922e+01  1.3341665456952992e+01  8.8213669937952002e+00  5.5781979511927418e+00  1.5822057559732158e+01  3.2812523238664070e+01  7.1913718571827516e+00  7.2324129967186535e+00  9.8597456781975623e+00  1.0495020674974688e+01  1.2817244943194462e+01  1.2111970179800137e+01  5.5483685774547356e+00  6.8428160727231075e+00  1.2600862169172897e+01  5.4347782487958201e+00  1.5209754655400090e+01  7.4971379260522859e+00  7.3473120601264901e+00  8.4284974347521793e+00  1.2309846154927961e+01  1.3156539914013024e+01  1.8590991434357043e+01  6.9236456291042714e+00  1.3389354916004219e+01  1.5607781557236347e+01  9.7846254469898994e+00  1.4780598352047901e+01  2.2363437434669844e+01  2.1666186939055596e+01  9.5179798902564201e+00  1.0236897392241886e+01  1.0433231511088033e+01  1.0171851810302361e+01  9.1166334142922452e+00  5.5376008410166619e+00  1.2639616206968622e+01  2.1680610649679760e+01  2.4960457600694991e+01  8.6079204510676117e+00  2.2869548150238547e+01  7.2479914952802709e+00  1.5482611442667428e+01  1.8849794554467792e+01  1.9193473269277280e+01  1.1263443852555556e+01  1.6485644623987028e+01  2.0070611447133956e+01  1.7082708401857268e+01  9.6342619544939634e+00  9.6253885897607532e+00  1.4968453404312770e+01  7.6817592762471874e+00  1.2008780432601677e+01  9.5831928946077802e+00  1.1842796255689269e+01  8.6703880074931465e+00  1.8760683441327735e+01  1.0140726243180804e+01  2.7862620916097612e+01  9.9743687896599305e+00  2.1918639397996902e+01  8.7400800313588398e+00  5.3825798516843406e+00  1.1227023080605170e+01  1.7855436963820249e+01  7.6629540283944326e+00  2.0781223934772079e+01  2.0625269584418191e+01  1.7444430846038987e+01  2.4167655095507548e+01  1.1212294339978440e+01  1.0833221897262586e+01  1.7612648144891374e+01  1.8318585775873050e+01  1.7756868538561360e+01  6.1798172650980572e+00  2.2781656590924964e+01  5.8907292482349431e+00  5.6114723119154988e