<?xml version="1.0"?>
<VTKFile type="UnstructuredGrid"  version="0.1"  >
<UnstructuredGrid>
<Piece  NumberOfPoints="8298" NumberOfCells="16192">
<Points>
<DataArray  type="Float64"  NumberOfComponents="3"  format="ascii">-2.799633570821959 0.2468875335020241 0  -2.799633570821959 0.1531124664979767 0  -2.796702674457134 0.05938321259017981 0  -2.79084374546177 -0.03420864679214375 0  -2.782062508506328 -0.127571664465879 0  -2.770367543603953 -0.2206146168456579 0  -2.755770277727077 -0.3132465930770498 0  -2.738284973642296 -0.4053770838641738 0  -2.717928715974439 -0.4969160699049485 0  -2.694721394513439 -0.5877741098475942 0  -2.668685684780322 -0.6778624276824097 0  -2.639847025871302 -0.7670929994834608 0  -2.608233595601625 -0.8553786394154328 0  -2.573876282973453 -0.9426330849215694 0  -2.53680865799469 -1.028771081009518 0  -2.497066938878243 -1.113708463552679 0  -2.45468995665375 -1.197362241525693 0  -2.409719117226371 -1.279650678093722 0  -2.362198360919712 -1.360493370476254 0  -2.312174119542402 -1.439811328507446 0  -2.259695271020274 -1.517527051816215 0  -2.204813091638491 -1.593564605550667 0  -2.14758120594027 -1.667849694572886 0  -2.088055534331146 -1.740309736051596 0  -2.026294238440004 -1.810873930381724 0  -1.962357664290228 -1.879473330361635 0  -1.896308283336525 -1.946040908560383 0  -1.828210631425014 -2.010511622809196 0  -1.758131245736229 -2.072822479753199 0  -1.686138599772655 -2.132912596401256 0  -1.612303036454309 -2.190723259613812 0  -1.536696699387734 -2.246197983470624 0  -1.459393462375598 -2.299282564462275 0  -1.380468857235704 -2.349925134451611 0  -1.300000000000001 -2.398076211353315 0  -1.218065515565697 -2.443688747482085 0  -1.13474546087205 -2.486718175522222 0  -1.050121246677961 -2.527122452073676 0  -0.9642755580167495 -2.564862098732012 0  -0.8772922734058739 -2.599900240662157 0  -0.7892563828904995 -2.632202642628243 0  -0.7002539050010244 -2.661737742444336 0  -0.6103718027056657 -2.688476681813369 0  -0.5196978984402927 -2.712393334524138 0  -0.4283207882984347 -2.733464331978835 0  -0.3363297554653894 -2.751669086026148 0  -0.2438146829809907 -2.766989809077625 0  -0.1508659659162482 -2.779411531487662 0  -0.05757442304969845 -2.788922116180115 0  0.03596879187024191 -2.795512270507249 0  0.1296722791902186 -2.799175555329447 0  0.2234444826571517 -2.799908391306797 0  0.3171937788764557 -2.797710062396404 0  0.4108285668358796 -2.79258271655203 0  0.504257357407436 -2.784531363625359 0  0.5973888627400625 -2.773563870470947 0  0.6901320854555892 -2.759690953259639 0  0.7823964075608818 -2.742926167007963 0  0.8740916789893147 -2.723285892333722 0  0.9651283056850286 -2.700789319450752 0  1.055417337143921 -2.675458429418447 0  1.144870553325831 -2.647317972664405 0  1.233400550852996 -2.61639544480116 0  1.320920828410577 -2.582721059760634 0  1.407345871265759 -2.546327720272568 0  1.49259123482291 -2.507250985715766 0  1.576573627133108 -2.465529037373556 0  1.659210990277434 -2.421202641127456 0  1.740422580544525 -2.374315107625433 0  1.820129047324026 -2.324912249963737 0  1.898252510638859 -2.27304233892362 0  1.974716637240567 -2.218756055806689 0  2.049446715193374 -2.162106442914975 0  2.122369726874076 -2.10314885172411 0  2.193414420316464 -2.041940888800232 0  2.262511378830517 -1.978542359513499 0  2.329593088828409 -1.913015209603158 0  2.394594005791008 -1.845423464651312 0  2.457450618310421 -1.7758331675245 0  2.518101510146034 -1.704312313844207 0  2.576487420233388 -1.630930785549377 0  2.632551300587255 -1.55576028261584 0  2.686238372042365 -1.478874252999352 0  2.737496177777292 -1.400347820870711 0  2.786274634569219 -1.320257713213078 0  2.832526081729493 -1.238682184853195 0  2.876205327672159 -1.155700941999803 0  2.917269694069972 -1.071395064363898 0  2.95567905755474 -0.9858469259369949 0  2.99139588892126 -0.8991401145047395 0  3.024385289796534 -0.8113593499745531 0  3.054615026738436 -0.7225904015971107 0  3.082055562730521 -0.632920004162502 0  3.106680086042191 -0.5424357732529863 0  3.128464536426036 -0.4512261196351431 0  3.147387628626728 -0.3593801628750458 0  3.163430873178528 -0.2669876442609028 0  3.176578594471056 -0.1741388391182 0  3.186817946065695 -0.08092446860305114 0  3.194138923247648 0.01256438894005352 0  3.198534372801398 0.1062363869695262 0  3.2 0.2 0  3.198534372801398 0.2937636130304729 0  3.194138923247648 0.3874356110599479 0  3.186817946065695 0.4809244686030523 0  3.176578594471056 0.5741388391181983 0  3.163430873178529 0.6669876442609008 0  3.147387628626729 0.7593801628750434 0  3.128464536426036 0.8512261196351407 0  3.106680086042191 0.9424357732529862 0  3.082055562730521 1.032920004162502 0  3.054615026738436 1.12259040159711 0  3.024385289796534 1.211359349974552 0  2.99139588892126 1.299140114504738 0  2.95567905755474 1.385846925936996 0  2.917269694069972 1.471395064363899 0  2.87620532767216 1.555700941999801 0  2.832526081729494 1.638682184853194 0  2.78627463456922 1.720257713213076 0  2.737496177777293 1.800347820870711 0  2.686238372042365 1.878874252999351 0  2.632551300587255 1.95576028261584 0  2.576487420233388 2.030930785549376 0  2.518101510146034 2.104312313844206 0  2.45745061831042 2.175833167524501 0  2.394594005791007 2.245423464651314 0  2.32959308882841 2.313015209603157 0  2.262511378830518 2.378542359513498 0  2.193414420316466 2.441940888800231 0  2.122369726874079 2.503148851724109 0  2.049446715193374 2.562106442914976 0  1.974716637240567 2.61875605580669 0  1.89825251063886 2.67304233892362 0  1.820129047324027 2.724912249963737 0  1.740422580544526 2.774315107625433 0  1.659210990277433 2.821202641127456 0  1.576573627133107 2.865529037373557 0  1.492591234822911 2.907250985715765 0  1.407345871265761 2.946327720272568 0  1.32092082841058 2.982721059760633 0  1.233400550852999 3.016395444801159 0  1.144870553325831 3.047317972664406 0  1.055417337143922 3.075458429418447 0  0.9651283056850295 3.100789319450752 0  0.8740916789893154 3.123285892333722 0  0.7823964075608831 3.142926167007963 0  0.6901320854555906 3.15969095325964 0  0.5973888627400645 3.173563870470947 0  0.5042573574074349 3.184531363625359 0  0.410828566835879 3.19258271655203 0  0.3171937788764585 3.197710062396405 0  0.2234444826571517 3.199908391306798 0  0.1296722791902187 3.199175555329448 0  0.03596879187024196 3.195512270507249 0  -0.05757442304969768 3.188922116180115 0  -0.1508659659162468 3.179411531487663 0  -0.24381468298099 3.166989809077625 0  -0.336329755465388 3.151669086026148 0  -0.4283207882984327 3.133464331978836 0  -0.5196978984402931 3.112393334524138 0  -0.6103718027056664 3.088476681813369 0  -0.7002539050010217 3.061737742444337 0  -0.7892563828904995 3.032202642628244 0  -0.877292273405873 2.999900240662158 0  -0.9642755580167495 2.964862098732012 0  -1.05012124667796 2.927122452073677 0  -1.134745460872048 2.886718175522224 0  -1.218065515565696 2.843688747482085 0  -1.299999999999999 2.798076211353316 0  -1.380468857235702 2.749925134451613 0  -1.459393462375598 2.699282564462275 0  -1.536696699387734 2.646197983470625 0  -1.612303036454307 2.590723259613814 0  -1.686138599772654 2.532912596401257 0  -1.758131245736229 2.4728224797532 0  -1.828210631425013 2.410511622809197 0  -1.896308283336525 2.346040908560383 0  -1.962357664290227 2.279473330361637 0  -2.026294238440003 2.210873930381725 0  -2.088055534331145 2.140309736051596 0  -2.14758120594027 2.067849694572887 0  -2.204813091638492 1.993564605550666 0  -2.259695271020273 1.917527051816217 0  -2.312174119542401 1.839811328507448 0  -2.362198360919713 1.760493370476253 0  -2.40971911722637 1.679650678093722 0  -2.45468995665375 1.597362241525694 0  -2.497066938878244 1.513708463552679 0  -2.53680865799469 1.42877108100952 0  -2.573876282973452 1.342633084921572 0  -2.608233595601625 1.255378639415432 0  -2.639847025871302 1.167092999483461 0  -2.668685684780322 1.077862427682409 0  -2.694721394513439 0.9877741098475963 0  -2.717928715974439 0.8969160699049505 0  -2.738284973642296 0.8053770838641732 0  -2.755770277727077 0.7132465930770504 0  -2.770367543603953 0.6206146168456573 0  -2.782062508506328 0.5275716644658798 0  -2.79084374546177 0.4342086467921458 0  -2.796702674457134 0.3406167874098196 0  0.2000000000000003 0.2000000000000006 0  -0.9591923423720814 -0.7522724703949746 0  0.605235398044117 -1.244414766145184 0  1.659142582126225 -0.1485006018821721 0  1.143184503327098 1.366598790145883 0  -0.3605288789174127 1.591530495672233 0  -1.348054202368631 0.595410153422852 0  -0.355988428393567 -1.668937585975542 0  2.045791540844914 0.8285733215186892 0  0.4925860939724619 2.1559964831792 0  1.625540449713301 -1.170898716472771 0  -1.792737385056673 -0.3089928982790732 0  -1.321514222662743 1.556661578270337 0  -0.1357207252994473 -0.8671930054101189 0  1.039467452420644 0.4858756436999032 0  -0.6592049186741196 0.06422886935498873 0  -1.148652348113522 -1.533744299976489 0  0.3648084405230466 -2.000513848345766 0  2.405272343188128 0.121279537611271 0  1.898890087911668 1.608259737415167 0  -0.334115881394652 0.7935101663970392 0  0.4341837285190856 1.003624596151143 0  1.311762063114028 2.125628379241093 0  -0.2612185641683356 2.368353895559189 0  2.235073228285024 -0.6791803773047853 0  1.126558250899582 -1.821274189121348 0  1.074561410363684 -0.6410390004614104 0  -2.058004194058147 0.4123760603336435 0  -1.627655296509362 -1.003912586557615 0  -1.854232358270788 1.090377736131769 0  -0.9510780350003785 2.17113550950357 0  -0.8266006594166613 1.176657106078548 0  0.4132443665191795 -0.4534855531795464 0  -1.200307658422286 -0.200326029364957 0  0.5898998772262123 1.573398743818983 0  0.8755040087066551 -0.08323420865263531 0  -0.1658533283137335 -0.2713112912204078 0  -0.1987087986414652 -2.207626146791168 0  -0.8207915020607315 -2.002800091312537 0  2.3939888266164 1.268665241087696 0  2.588124881026897 0.6592136431742199 0  -0.5979210720000484 -1.17134012897056 0  0.2574978593596872 2.
[...]
<PointData  Scalars="f_20"> 
<DataArray  type="Float64"  Name="f_20"  format="ascii">2.0000808493469464e+01  1.9888278413064604e+01  1.9812124947128293e+01  1.9772319506129143e+01  1.9768695389960321e+01  1.9800948754152081e+01  1.9868640107827119e+01  1.9971196337241864e+01  2.0107913246707817e+01  2.0277958606669863e+01  2.0480375696741902e+01  2.0714087329571171e+01  2.0977900339529583e+01  2.1270510518419513e+01  2.1590507978641313e+01  2.1936382922605382e+01  2.2306531795591098e+01  2.2699263797763418e+01  2.3112807729661299e+01  2.3545319144176830e+01  2.3994887776853446e+01  2.4459545225252057e+01  2.4937272847168487e+01  2.5426009846638870e+01  2.5923661515943628e+01  2.6428107601220582e+01  2.6937210758822296e+01  2.7448825069208063e+01  2.7960804574944646e+01  2.8471011809304734e+01  2.8977326281998696e+01  2.9477652888751667e+01  2.9969930211745297e+01  3.0452138678379931e+01  3.0922308546376019e+01  3.1378527683922012e+01  3.1818949114387440e+01  3.2241798296049090e+01  3.2645380108324474e+01  3.3028085517163085e+01  3.3388397893510735e+01  3.3724898960127213e+01  3.4036274343500843e+01  3.4321318709156188e+01  3.4578940460290099e+01  3.4808165981387347e+01  3.5008143410255428e+01  3.5178145923771638e+01  3.5317574524545229e+01  3.5425960317658394e+01  3.5502966268652159e+01  3.5548388435960590e+01  3.5562156673060215e+01  3.5544334797683788e+01  3.5495120227539438e+01  3.5414843084071215e+01  3.5303964767884580e+01  3.5163076011535168e+01  3.4992894417430009e+01  3.4794261490612222e+01  3.4568139178182648e+01  3.4315605929048537e+01  3.4037852289573273e+01  3.3736176052522175e+01  3.3411976978454277e+01  3.3066751110388232e+01  3.2702084704168179e+01  3.2319647798465134e+01  3.1921187449764396e+01  3.1508520659007015e+01  3.1083527017764830e+01  3.0648141102931280e+01  3.0204344649900268e+01  2.9754158535076879e+01  2.9299634599315073e+01  2.8842847344505309e+01  2.8385885536036142e+01  2.7930843744227197e+01  2.7479813858074579e+01  2.7034876604762736e+01  2.6598093108379032e+01  2.6171496521118414e+01  2.5757083759986003e+01  2.5356807381597342e+01  2.4972567627139721e+01  2.4606204668895906e+01  2.4259491088947421e+01  2.3934124619769086e+01  2.3631721175405957e+01  2.3353808200789814e+01  2.3101818365511065e+01  2.2877083627017093e+01  2.2680829686765346e+01  2.2514170861324828e+01  2.2378105388798346e+01  2.2273511189236874e+01  2.2201142095943037e+01  2.2161624572720026e+01  2.2155454930222444e+01  2.2182997052613970e+01  2.2244480643741060e+01  2.2340000000000014e+01  2.2469513315014197e+01  2.2632842519157844e+01  2.2829673654869772e+01  2.3059557786603698e+01  2.3321912442169200e+01  2.3616023580136975e+01  2.3941048075922684e+01  2.4296016717131991e+01  2.4679837696755349e+01  2.5091300590850153e+01  2.5529080805449986e+01  2.5991744475601180e+01  2.6477753797654749e+01  2.6985472774242446e+01  2.7513173349746936e+01  2.8059041912543563e+01  2.8621186138851094e+01  2.9197642151687049e+01  2.9786381967184440e+01  3.0385321199396426e+01  3.0992326993697528e+01  3.1605226157988820e+01  3.2221813460133390e+01  3.2839860059390361e+01  3.3457122039083714e+01  3.4071349007337695e+01  3.4680292732435625e+01  3.5281715779214743e+01  3.5873400112896213e+01  3.6453155636867336e+01  3.7018828631181528e+01  3.7568310058919991e+01  3.8099543708065433e+01  3.8610534137171037e+01  3.9099354393864729e+01  3.9564153476106057e+01  4.0003163507108439e+01  4.0414706595947685e+01  4.0797201357096043e+01  4.1149169063443118e+01  4.1469239408786926e+01  4.1756155857294040e+01  4.2008780559030939e+01  4.2226098812354280e+01  4.2407223055707725e+01  4.2551396373201499e+01  4.2657995500240304e+01  4.2726533317408666e+01  4.2756660822811597e+01  4.2748168575096912e+01  4.2700987601442840e+01  4.2615189766875794e+01  4.2490987603377505e+01  4.2328733599342030e+01  4.2128918952041737e+01  4.1892171787850117e+01  4.1619254857039323e+01  4.1311062712014120e+01  4.0968618379852934e+01  4.0593069541993636e+01  4.0185684235818520e+01  3.9747846094752276e+01  3.9281049145281308e+01  3.8786892181025934e+01  3.8267072735640795e+01  3.7723380677879028e+01  3.7157691453623997e+01  3.6571959001063824e+01  3.5968208366454753e+01  3.5348528049081175e+01  3.4715062105071873e+01  3.4070002040667767e+01  3.3415578526352334e+01  3.2754052963950137e+01  3.2087708939367211e+01  3.1418843594088518e+01  3.0749758948859768e+01  3.0082753213162697e+01  2.9420112114143429e+01  2.8764100278573650e+01  2.8116952701212369e+01  2.7480866332594715e+01  2.6857991818804305e+01  2.6250425425188354e+01  2.5660201175252769e+01  2.5089283235131809e+01  2.4539558573064170e+01  2.4012829922231290e+01  2.3510809074126620e+01  2.3035110528331479e+01  2.2587245523179682e+01  2.2168616470304102e+01  2.1780511814479702e+01  2.1424101338515882e+01  2.1100431931212043e+01  2.0810423834581659e+01  2.0554867384678431e+01  2.0334420258430292e+01  2.0149605236911860e+01  1.2139934461064561e+01  1.4596005891547254e+01  1.6990125785305036e+01  1.4799137212318861e+01  1.8888689607934097e+01  1.9707426578519257e+01  1.4859604153223337e+01  2.0461493716691827e+01  1.8224381785238059e+01  2.6166507652105871e+01  1.8733094791825501e+01  1.5479538027860407e+01  2.0994949663844110e+01  1.4254510251305652e+01  1.3769341481102423e+01  1.2426042330741341e+01  2.0355933077004291e+01  2.4118271187276420e+01  1.7808981108631226e+01  2.3344465357370389e+01  1.3979216965186991e+01  1.5189805190332544e+01  2.7254928716798702e+01  2.8874948355971675e+01  1.8357698719983500e+01  2.3199584018556624e+01  1.4366521530237447e+01  1.6723725058962440e+01  1.7651142400591223e+01  1.8984604318880983e+01  2.7025175958254174e+01  1.6814999977855571e+01  1.2767878969600826e+01  1.3541576248407759e+01  1.9754693701426426e+01  1.2765227699694536e+01  1.2227566699444010e+01  2.6639202210810911e+01  2.4687213908915943e+01  2.2538773638481370e+01  1.9981493696662316e+01  1.6453064765745303e+01  3.3145606281347078e+01  3.1999650129756215e+01  2.3816373490963439e+01  2.1288150828831320e+01  1.6462436294272500e+01  1.8898903805592685e+01  1.5938769107853535e+01  1.3626836470346117e+01  1.5801671585497306e+01  2.1650014336475966e+01  1.8317845056577383e+01  1.4672593694001291e+01  1.7999069350481847e+01  1.7156919634638317e+01  2.3145232569767408e+01  2.6766862062894482e+01  1.6320041588107326e+01  2.1017601486357574e+01  1.7343541023836895e+01  1.3281896145455731e+01  2.8560847185461355e+01  2.7424132742858394e+01  1.9224353216224085e+01  2.1414499476324355e+01  1.5086230842239367e+01  2.2666692760755691e+01  1.4748335492294284e+01  1.3138146218137331e+01  1.3337985693733113e+01  1.5640114906560157e+01  3.2203022486442912e+01  1.2360559064376787e+01  1.3344593944193919e+01  1.9156943881962079e+01  1.9370609959941600e+01  1.4486077685961714e+01  2.4359850764354523e+01  2.4781205591724969e+01  1.6941000719108516e+01  3.4935607449088309e+01  1.6604742801568300e+01  2.0159913786242825e+01  2.9018811238984167e+01  1.9962783921623164e+01  2.5815074296252739e+01  1.6989882015269995e+01  2.0289494338659232e+01  3.2976457526182116e+01  2.6928169145741137e+01  1.4680706454869178e+01  1.3523357127456697e+01  2.1170087955921893e+01  1.6489575797811664e+01  2.0304738033105519e+01  2.0875281124224667e+01  1.3118662141671415e+01  2.6400726364921152e+01  1.7998472380569943e+01  1.3703293517954807e+01  2.2395045156761256e+01  1.7175042518952836e+01  2.1834395965424811e+01  1.6350323306202963e+01  1.8064941633014367e+01  1.7747725886362833e+01  1.5297032350137080e+01  1.5708496984230568e+01  2.6913859302839622e+01  3.1015442031888831e+01  1.2382557440810983e+01  1.7501053053581291e+01  2.3783120287945156e+01  1.8630025156791312e+01  1.9976778152537651e+01  2.1151532284782185e+01  1.5832792422110261e+01  2.1623371664540887e+01  2.4492904113584625e+01  1.2919027405242634e+01  1.3322613038016398e+01  1.2095199268860458e+01  1.6346196868889241e+01  2.2825268098905951e+01  2.0085562853201345e+01  2.4261260783227158e+01  2.8150333560059721e+01  2.2358809865799461e+01  1.6488848620979489e+01  2.0189258441147764e+01  3.5900277550789411e+01  1.6121027810479173e+01  1.6498118557316669e+01  1.2416377078752605e+01  3.0820842213862889e+01  2.4044730772645472e+01  1.6951690334848557e+01  2.3207384557048869e+01  2.0660386945342026e+01  2.8514768585360631e+01  2.9937378591036804e+01  2.7094381733325910e+01  1.6527663602146319e+01  1.6159334134119451e+01  1.7461897740370059e+01  2.3519314403114002e+01  2.6653363987285395e+01  1.2383924943357568e+01  1.8300204839361797e+01  1.8279602456196525e+01  1.4727035682948951e+01  3.2290649165853495e+01  1.8582467252267701e+01  1.2080672493799828e+01  1.4117848417937513e+01  2.3572274842271849e+01  2.1624118542469006e+01  2.3121638055985013e+01  1.4377144046685137e+01  1.8932918517582074e+01  1.2715709406763441e+01  1.9099611398062866e+01  1.5671278254570318e+01  1.3991539236469961e+01  1.2879306578261977e+01  1.4454740322524614e+01  1.8196907764729236e+01  2.6062309612094108e+01  2.1090664354015896e+01  2.7301931260328772e+01  1.2899572120483899e+01  3.0814584205749210e+01  1.9670672854775027e+01  1.4581877170793451e+01  2.4289886714683330e+01  1.5681746554386436e+01  3.2851397228477509e+01  2.2981851408279557e+01  1.8253589725527252e+01  1.4898540366514327e+01  3.5665750072683316e+01  2.7884876555401135e+01  1.2954560568173831e+01  3.0308621038497030e+01  2.5427989812326576e+01  2.2357573960916753e+01  1.8809952656122611e+01  2.2830353472464903e+01  3.7425074955556234e+01  3.7377316471789129e+01  2.7376307400163078e+01  2.5564615585935687e+01  1.9447121972785304e+01  1.9117538849771179e+01  1.3785695036639144e+01  1.8498749127577593e+01  1.5455576346867382e+01  1.4460278414523094e+01  3.3509425575074282e+01  1.9952739940509822e+01  1.1980848538812706e+01  2.9822242866942950e+01  2.0500420190580410e+01  2.4127639258941418e+01  1.2949956324037020e+01  2.9065322973013021e+01  3.0362253601396013e+01  1.5335536053374135e+01  1.9607080867661157e+01  1.4117829173499759e+01  2.2193113556318973e+01  1.4178410756638771e+01  3.0528447241230172e+01  1.4649779065742349e+01  1.9759189533611693e+01  1.8085621732155829e+01  2.1443000861136586e+01  1.6973486653872925e+01  1.6645914460485887e+01  1.8374773163843770e+01  3.6114457130961654e+01  1.8163793925124160e+01  1.3247769820891756e+01  1.7797109333817627e+01  1.7822067180913873e+01  2.0771897681107539e+01  2.2122533733098816e+01  2.0795545833885782e+01  2.0937622405442646e+01  1.9913693345405722e+01  1.7808155183473321e+01  1.8122566048135440e+01  3.0936334516177737e+01  2.8835435806787210e+01  2.3830142053406686e+01  1.7780020312586881e+01  2.3870884081350862e+01  2.6933108623209378e+01  1.8741946897443807e+01  1.3496423808245531e+01  1.6995484406415198e+01  1.4819251191995559e+01  3.2061930054001543e+01  2.8845505761846521e+01  2.1060623205144729e+01  1.3016613132470468e+01  1.2382608460391726e+01  1.5726358905606780e+01  1.3906276790900019e+01  2.0037300276030752e+01  1.4734822477214799e+01  1.5604091615249578e+01  1.6848095964446696e+01  1.2120950675711295e+01  2.3882896777448355e+01  1.3606093616490337e+01  1.6166760047340095e+01  2.7223404668896453e+01  2.5823115079087366e+01  2.5327648004902546e+01  2.2387143913182435e+01  1.7525426350865072e+01  2.3856354662906632e+01  2.5787992853450280e+01  1.9316918441219155e+01  1.9826876788276248e+01  2.0423528066475587e+01  1.8840385603496994e+01  2.0872336652288276e+01  2.1148019267156254e+01  2.1793685602531031e+01  1.7585758326627026e+01  1.4158031486711485e+01  1.2479182763111211e+01  3.0796692791475401e+01  3.0110855581028002e+01  1.8226120220392843e+01  1.5880996438708856e+01  1.6182214188470471e+01  2.9262061540254081e+01  1.3225228433648271e+01  2.5613321387993334e+01  1.9090999577367977e+01  1.2598411449901491e+01  2.0112474307527311e+01  1.4233772822760908e+01  1.8619076096681901e+01  2.5613562680346760e+01  1.9151339512473584e+01  2.0987163737303796e+01  3.0093372535342709e+01  1.6081000901401698e+01  1.5195611987735074e+01  1.3942801596106753e+01  1.9164658073109543e+01  3.7254280077438963e+01  1.5201917827607360e+01  3.7482570517803957e+01  3.0154536875961590e+01  1.5861100882795212e+01  1.2990183718529469e+01  1.5709316427322996e+01  1.6546538212015520e+01  2.0711886397134016e+01  2.7188918468633741e+01  2.4951102649189448e+01  1.6399540601071621e+01  1.5396544691475453e+01  1.6199998592388891e+01  2.5206630759026581e+01  1.3897604846354149e+01  1.3361856985104168e+01  2.2058123973501925e+01  2.5834667746147318e+01  1.4578018165678104e+01  1.7112891837727769e+01  1.5521589123431523e+01  2.9936972366751483e+01  1.3506643793548449e+01  1.6561174315497887e+01  2.3772594960738534e+01  1.4107806877942544e+01  1.5575480231759769e+01  1.5092078945295277e+01  3.5445194114284725e+01  1.4901039792986499e+01  1.2284282560648602e+01  3.3991719836265702e+01  1.7598280872546667e+01  2.1939142621945898e+01  1.7939912185945374e+01  2.1247363310690453e+01  3.1778736988341716e+01  2.8335411012049544e+01  2.0362295096018837e+01  2.4127299478279724e+01  2.6343005015213141e+01  2.7510895744908808e+01  1.2790944956469938e+01  1.2863771870105460e+01  2.3790478681513573e+01  2.1236877891442141e+01  1.5390268683206219e+01  2.3719680776297924e+01  2.1396122202846584e+01  2.3234399040031306e+01  1.6890194750652636e+01  2.3821874994218771e+01  3.4928008908573183e+01  3.6334546656173323e+01  2.5066316204873814e+01  1.8841544234148490e+01  2.4052146656297595e+01  1.5166873343340550e+01  2.9148452752505232e+01  1.8618656811267655e+01  1.7584566963404825e+01  2.2712694318023392e+01  1.2533161203726356e+01  1.5525474512973153e+01  1.7954127959279241e+01  1.9452129251563484e+01  1.6925105159896525e+01  1.6155049065726427e+01  1.4112945383119976e+01  3.8513592058802388e+01  3.3994120100115154e+01  3.1765662348618509e+01  2.5566407260790577e+01  2.2916154688842351e+01  2.2577107124805753e+01  2.6016144742340760e+01  2.4710610390454935e+01  1.4948158818882924e+01  1.2469585202425336e+01  1.6560258910882755e+01  1.4562473238353244e+01  2.0871293890378848e+01  2.5337448721971992e+01  1.9670286477249579e+01  2.1218745592528702e+01  3.1136958622665560e+01  1.4891392198137453e+01  2.1993984930861082e+01  1.8964828181062952e+01  2.0578440692186557e+01  1.8851375186049559e+01  2.8072299768351677e+01  1.8489535674632037e+01  1.7119662093021915e+01  1.5783982859710882e+01  1.6778614037980422e+01  1.4468075052423199e+01  1.3379542133188641e+01  1.3219408390157557e+01  1.3632657736412153e+01  2.2744308919970766e+01  2.1879370566836222e+01  1.3279431523968350e+01  1.4082417996924955e+01  1.7253514076396733e+01  1.8730675943773878e+01  2.2367647613344925e+01  1.2871559102812054e+01  1.9771528804036212e+01  1.8458017053603076e+01  3.0653049578418610e+01  3.1935715310428726e+01  1.4023252192368222e+01  1.7901484139235510e+01  1.8058287786322033e+01  1.6265859952188340e+01  2.1927183891223212e+01  2.3356068217473613e+01  1.3770483485756085e+01  1.8675262043350344e+01  1.6042860977699451e+01  1.8131990066073183e+01  1.8147396931128906e+01  1.6869552506579556e+01  1.3136297512144353e+01  2.3531100903925761e+01  1.9440253386556630e+01  2.6715209692099226e+01  3.4022002923013041e+01  3.2786114489401200e+01  2.1576431528784020e+01  2.4369583875436561e+01  1.7446331552971373e+01  1.8699987255405489e+01  3.2545502807279370e+01  1.2231051499215797e+01  2.6623211882865917e+01  2.7685331081267126e+01  2.0411782250584768e+01  1.5231540913556122e+01  1.5892169052998987e+01  3.8889061377600520e+01  1.7670220103785415e+01  1.8538080733700021e+01  1.4128372546929322e+01  1.4911171497438547e+01  1.2697372852733313e+01  1.2564855663418134e+01  1.5417340496678488e+01  2.1181169724102691e+01  2.1771669234258020e+01  1.2231316347955088e+01  1.7564848424113137e+01  1.6531821763834131e+01  1.6782070572533982e+01  1.8799516689283308e+01  1.7496115278090787e+01  2.2970942292437648e+01  2.3639945121531639e+01  2.0722990199806084e+01  1.3048314757209113e+01  1.6351359071705751e+01  1.4389371339294101e+01  1.6982532415701900e+01  1.2076749052670095e+01  1.9915552904239892e+01  1.3489484217306588e+01  1.2693206954549222e+01  2.0335093126658013e+01  2.5665883082471886e+01  2.1106789401648133e+01  2.9304131537662354e+01  2.6805857415018810e+01  2.6432578480061522e+01  2.0450940684305092e+01  2.0944350852972239e+01  1.5568706120698744e+01  1.8859187923842732e+01  2.3881337754298144e+01  1.2562244946083284e+01  3.1494354408707910e+01  1.2477750501907096e+01  1.4107789024534926e+01  2.9649047920625687e+01  3.2498232344965174e+01  2.8746865157114453e+01  1.8233891297884878e+01  1.7426653497796575e+01  1.5090088070137847e+01  2.9455746493766259e+01  2.7299007649298147e+01  1.3441633188916590e+01  1.2018700563806350e+01  2.5150391018886367e+01  1.6913679960050946e+01  1.6424666999590716e+01  1.8670920954352809e+01  2.3087416610247363e+01  1.7122990383653566e+01  2.0654413491093347e+01  1.9372174524369015e+01  2.1951163142553497e+01  2.2163772597775793e+01  3.4180668612439923e+01  2.5068441066824462e+01  1.4966356104069504e+01  3.4057702741812967e+01  2.8205963437508025e+01  2.5663337760421147e+01  1.7377211025399941e+01  2.2252100457202317e+01  2.0163447085093846e+01  2.2719177906021535e+01  2.2397905110618495e+01  2.5376599681965629e+01  1.5451597628215890e+01  2.9789105508172781e+01  2.4249308532209152e+01  2.2020683712696417e+01  2.2496773143165989e+01  1.5154307890731099e+01  1.6191289819559941e+01  1.6446569039797570e+01  2.1834474527967060e+01  3.1357112234208220e+01  1.9063988181092633e+01  2.1055370341904865e+01  2.2277758198877720e+01  2.8465837240501145e+01  1.9518691286979021e+01  1.9244658394511244e+01  1.9678894795733424e+01  2.0654032985315546e+01  2.7495011729995110e+01  2.1025224802320352e+01  2.0195715787691512e+01  1.5081563424197739e+01  1.7580629121144256e+01  1.7096774935750140e+01  1.9699794069241346e+01  2.7954715782988824e+01  2.7336045422865311e+01  1.9240921051987492e+01  3.8693204242706507e+01  2.8470439934374966e+01  1.2719810957915040e+01  2.0095913325148604e+01  3.1037667082200272e+01  2.3942436715168597e+01  2.6427008611078282e+01  2.4854554351746295e+01  2.5746218817854796e+01  2.1523141954042288e+01  2.0001627992438653e+01  1.5481282612472731e+01  1.2238084336990692e+01  2.2482000233851480e+01  3.9472513920305161e+01  1.3851268848173552e+01  1.3892308610308513e+01  1.6519664403724846e+01  1.7154952272982708e+01  1.9477187878940406e+01  1.8771959862639598e+01  1.2208252799285530e+01  1.3502697189842229e+01  1.9260837707530655e+01  1.2094654767837703e+01  2.1869678372958528e+01  1.4157030217294434e+01  1.4007208688015671e+01  1.5088403745824451e+01  1.8969834800272601e+01  1.9816475903770517e+01  2.5250953794560672e+01  1.3583528134246730e+01  2.0049296518476329e+01  2.2267772191875356e+01  1.6444563149212122e+01  2.1440540169624235e+01  2.9023416011034641e+01  2.8326178017043308e+01  1.6177936356265349e+01  1.6896864989312004e+01  1.7093192451545260e+01  1.6831802696978897e+01  1.5776575947714747e+01  1.2197476989175227e+01  1.9299566510672715e+01  2.8340562638946448e+01  3.1620421838466587e+01  1.5267810544999044e+01  2.9529538777583475e+01  1.3907885764978976e+01  2.2142561595859469e+01  2.5509759792659128e+01  2.5853442508559514e+01  1.7923424551315247e+01  2.3145573104187950e+01  2.6730578861358541e+01  2.3742644130781418e+01  1.6294160424791372e+01  1.6285287645561823e+01  2.1628413173686596e+01  1.4341668928499340e+01  1.8668744841352321e+01  1.6243123174159759e+01  1.8502737384430382e+01  1.5330309594119262e+01  2.5420674279265437e+01  1.6800660061436830e+01  3.4522599212919559e+01  1.6634283548402603e+01  2.8578591806359043e+01  1.5400012598893749e+01  1.2042459005053908e+01  1.7886939154561237e+01  2.4515427495340422e+01  1.4322861033033771e+01  2.7441201382098672e+01  2.7285242565165333e+01  2.4104364335305249e+01  3.0827616306846515e+01  1.7872225108161413e+01  1.7493142015671097e+01  2.4272605402546709e+01  2.4978550062844000e+01  2.4416847810159883e+01  1.2839695868149644e+01  2.9441635201530534e+01  1.2550612259966055e+01  1.2271351019144497e