<?xml version="1.0"?>
<VTKFile type="UnstructuredGrid"  version="0.1"  >
<UnstructuredGrid>
<Piece  NumberOfPoints="8298" NumberOfCells="16192">
<Points>
<DataArray  type="Float64"  NumberOfComponents="3"  format="ascii">-2.799633570821959 0.2468875335020241 0  -2.799633570821959 0.1531124664979767 0  -2.796702674457134 0.05938321259017981 0  -2.79084374546177 -0.03420864679214375 0  -2.782062508506328 -0.127571664465879 0  -2.770367543603953 -0.2206146168456579 0  -2.755770277727077 -0.3132465930770498 0  -2.738284973642296 -0.4053770838641738 0  -2.717928715974439 -0.4969160699049485 0  -2.694721394513439 -0.5877741098475942 0  -2.668685684780322 -0.6778624276824097 0  -2.639847025871302 -0.7670929994834608 0  -2.608233595601625 -0.8553786394154328 0  -2.573876282973453 -0.9426330849215694 0  -2.53680865799469 -1.028771081009518 0  -2.497066938878243 -1.113708463552679 0  -2.45468995665375 -1.197362241525693 0  -2.409719117226371 -1.279650678093722 0  -2.362198360919712 -1.360493370476254 0  -2.312174119542402 -1.439811328507446 0  -2.259695271020274 -1.517527051816215 0  -2.204813091638491 -1.593564605550667 0  -2.14758120594027 -1.667849694572886 0  -2.088055534331146 -1.740309736051596 0  -2.026294238440004 -1.810873930381724 0  -1.962357664290228 -1.879473330361635 0  -1.896308283336525 -1.946040908560383 0  -1.828210631425014 -2.010511622809196 0  -1.758131245736229 -2.072822479753199 0  -1.686138599772655 -2.132912596401256 0  -1.612303036454309 -2.190723259613812 0  -1.536696699387734 -2.246197983470624 0  -1.459393462375598 -2.299282564462275 0  -1.380468857235704 -2.349925134451611 0  -1.300000000000001 -2.398076211353315 0  -1.218065515565697 -2.443688747482085 0  -1.13474546087205 -2.486718175522222 0  -1.050121246677961 -2.527122452073676 0  -0.9642755580167495 -2.564862098732012 0  -0.8772922734058739 -2.599900240662157 0  -0.7892563828904995 -2.632202642628243 0  -0.7002539050010244 -2.661737742444336 0  -0.6103718027056657 -2.688476681813369 0  -0.5196978984402927 -2.712393334524138 0  -0.4283207882984347 -2.733464331978835 0  -0.3363297554653894 -2.751669086026148 0  -0.2438146829809907 -2.766989809077625 0  -0.1508659659162482 -2.779411531487662 0  -0.05757442304969845 -2.788922116180115 0  0.03596879187024191 -2.795512270507249 0  0.1296722791902186 -2.799175555329447 0  0.2234444826571517 -2.799908391306797 0  0.3171937788764557 -2.797710062396404 0  0.4108285668358796 -2.79258271655203 0  0.504257357407436 -2.784531363625359 0  0.5973888627400625 -2.773563870470947 0  0.6901320854555892 -2.759690953259639 0  0.7823964075608818 -2.742926167007963 0  0.8740916789893147 -2.723285892333722 0  0.9651283056850286 -2.700789319450752 0  1.055417337143921 -2.675458429418447 0  1.144870553325831 -2.647317972664405 0  1.233400550852996 -2.61639544480116 0  1.320920828410577 -2.582721059760634 0  1.407345871265759 -2.546327720272568 0  1.49259123482291 -2.507250985715766 0  1.576573627133108 -2.465529037373556 0  1.659210990277434 -2.421202641127456 0  1.740422580544525 -2.374315107625433 0  1.820129047324026 -2.324912249963737 0  1.898252510638859 -2.27304233892362 0  1.974716637240567 -2.218756055806689 0  2.049446715193374 -2.162106442914975 0  2.122369726874076 -2.10314885172411 0  2.193414420316464 -2.041940888800232 0  2.262511378830517 -1.978542359513499 0  2.329593088828409 -1.913015209603158 0  2.394594005791008 -1.845423464651312 0  2.457450618310421 -1.7758331675245 0  2.518101510146034 -1.704312313844207 0  2.576487420233388 -1.630930785549377 0  2.632551300587255 -1.55576028261584 0  2.686238372042365 -1.478874252999352 0  2.737496177777292 -1.400347820870711 0  2.786274634569219 -1.320257713213078 0  2.832526081729493 -1.238682184853195 0  2.876205327672159 -1.155700941999803 0  2.917269694069972 -1.071395064363898 0  2.95567905755474 -0.9858469259369949 0  2.99139588892126 -0.8991401145047395 0  3.024385289796534 -0.8113593499745531 0  3.054615026738436 -0.7225904015971107 0  3.082055562730521 -0.632920004162502 0  3.106680086042191 -0.5424357732529863 0  3.128464536426036 -0.4512261196351431 0  3.147387628626728 -0.3593801628750458 0  3.163430873178528 -0.2669876442609028 0  3.176578594471056 -0.1741388391182 0  3.186817946065695 -0.08092446860305114 0  3.194138923247648 0.01256438894005352 0  3.198534372801398 0.1062363869695262 0  3.2 0.2 0  3.198534372801398 0.2937636130304729 0  3.194138923247648 0.3874356110599479 0  3.186817946065695 0.4809244686030523 0  3.176578594471056 0.5741388391181983 0  3.163430873178529 0.6669876442609008 0  3.147387628626729 0.7593801628750434 0  3.128464536426036 0.8512261196351407 0  3.106680086042191 0.9424357732529862 0  3.082055562730521 1.032920004162502 0  3.054615026738436 1.12259040159711 0  3.024385289796534 1.211359349974552 0  2.99139588892126 1.299140114504738 0  2.95567905755474 1.385846925936996 0  2.917269694069972 1.471395064363899 0  2.87620532767216 1.555700941999801 0  2.832526081729494 1.638682184853194 0  2.78627463456922 1.720257713213076 0  2.737496177777293 1.800347820870711 0  2.686238372042365 1.878874252999351 0  2.632551300587255 1.95576028261584 0  2.576487420233388 2.030930785549376 0  2.518101510146034 2.104312313844206 0  2.45745061831042 2.175833167524501 0  2.394594005791007 2.245423464651314 0  2.32959308882841 2.313015209603157 0  2.262511378830518 2.378542359513498 0  2.193414420316466 2.441940888800231 0  2.122369726874079 2.503148851724109 0  2.049446715193374 2.562106442914976 0  1.974716637240567 2.61875605580669 0  1.89825251063886 2.67304233892362 0  1.820129047324027 2.724912249963737 0  1.740422580544526 2.774315107625433 0  1.659210990277433 2.821202641127456 0  1.576573627133107 2.865529037373557 0  1.492591234822911 2.907250985715765 0  1.407345871265761 2.946327720272568 0  1.32092082841058 2.982721059760633 0  1.233400550852999 3.016395444801159 0  1.144870553325831 3.047317972664406 0  1.055417337143922 3.075458429418447 0  0.9651283056850295 3.100789319450752 0  0.8740916789893154 3.123285892333722 0  0.7823964075608831 3.142926167007963 0  0.6901320854555906 3.15969095325964 0  0.5973888627400645 3.173563870470947 0  0.5042573574074349 3.184531363625359 0  0.410828566835879 3.19258271655203 0  0.3171937788764585 3.197710062396405 0  0.2234444826571517 3.199908391306798 0  0.1296722791902187 3.199175555329448 0  0.03596879187024196 3.195512270507249 0  -0.05757442304969768 3.188922116180115 0  -0.1508659659162468 3.179411531487663 0  -0.24381468298099 3.166989809077625 0  -0.336329755465388 3.151669086026148 0  -0.4283207882984327 3.133464331978836 0  -0.5196978984402931 3.112393334524138 0  -0.6103718027056664 3.088476681813369 0  -0.7002539050010217 3.061737742444337 0  -0.7892563828904995 3.032202642628244 0  -0.877292273405873 2.999900240662158 0  -0.9642755580167495 2.964862098732012 0  -1.05012124667796 2.927122452073677 0  -1.134745460872048 2.886718175522224 0  -1.218065515565696 2.843688747482085 0  -1.299999999999999 2.798076211353316 0  -1.380468857235702 2.749925134451613 0  -1.459393462375598 2.699282564462275 0  -1.536696699387734 2.646197983470625 0  -1.612303036454307 2.590723259613814 0  -1.686138599772654 2.532912596401257 0  -1.758131245736229 2.4728224797532 0  -1.828210631425013 2.410511622809197 0  -1.896308283336525 2.346040908560383 0  -1.962357664290227 2.279473330361637 0  -2.026294238440003 2.210873930381725 0  -2.088055534331145 2.140309736051596 0  -2.14758120594027 2.067849694572887 0  -2.204813091638492 1.993564605550666 0  -2.259695271020273 1.917527051816217 0  -2.312174119542401 1.839811328507448 0  -2.362198360919713 1.760493370476253 0  -2.40971911722637 1.679650678093722 0  -2.45468995665375 1.597362241525694 0  -2.497066938878244 1.513708463552679 0  -2.53680865799469 1.42877108100952 0  -2.573876282973452 1.342633084921572 0  -2.608233595601625 1.255378639415432 0  -2.639847025871302 1.167092999483461 0  -2.668685684780322 1.077862427682409 0  -2.694721394513439 0.9877741098475963 0  -2.717928715974439 0.8969160699049505 0  -2.738284973642296 0.8053770838641732 0  -2.755770277727077 0.7132465930770504 0  -2.770367543603953 0.6206146168456573 0  -2.782062508506328 0.5275716644658798 0  -2.79084374546177 0.4342086467921458 0  -2.796702674457134 0.3406167874098196 0  0.2000000000000003 0.2000000000000006 0  -0.9591923423720814 -0.7522724703949746 0  0.605235398044117 -1.244414766145184 0  1.659142582126225 -0.1485006018821721 0  1.143184503327098 1.366598790145883 0  -0.3605288789174127 1.591530495672233 0  -1.348054202368631 0.595410153422852 0  -0.355988428393567 -1.668937585975542 0  2.045791540844914 0.8285733215186892 0  0.4925860939724619 2.1559964831792 0  1.625540449713301 -1.170898716472771 0  -1.792737385056673 -0.3089928982790732 0  -1.321514222662743 1.556661578270337 0  -0.1357207252994473 -0.8671930054101189 0  1.039467452420644 0.4858756436999032 0  -0.6592049186741196 0.06422886935498873 0  -1.148652348113522 -1.533744299976489 0  0.3648084405230466 -2.000513848345766 0  2.405272343188128 0.121279537611271 0  1.898890087911668 1.608259737415167 0  -0.334115881394652 0.7935101663970392 0  0.4341837285190856 1.003624596151143 0  1.311762063114028 2.125628379241093 0  -0.2612185641683356 2.368353895559189 0  2.235073228285024 -0.6791803773047853 0  1.126558250899582 -1.821274189121348 0  1.074561410363684 -0.6410390004614104 0  -2.058004194058147 0.4123760603336435 0  -1.627655296509362 -1.003912586557615 0  -1.854232358270788 1.090377736131769 0  -0.9510780350003785 2.17113550950357 0  -0.8266006594166613 1.176657106078548 0  0.4132443665191795 -0.4534855531795464 0  -1.200307658422286 -0.200326029364957 0  0.5898998772262123 1.573398743818983 0  0.8755040087066551 -0.08323420865263531 0  -0.1658533283137335 -0.2713112912204078 0  -0.1987087986414652 -2.207626146791168 0  -0.8207915020607315 -2.002800091312537 0  2.3939888266164 1.268665241087696 0  2.588124881026897 0.6592136431742199 0  -0.5979210720000484 -1.17134012897056 0  0.2574978593596872 2.
[...]
<PointData  Scalars="f_20"> 
<DataArray  type="Float64"  Name="f_20"  format="ascii">1.8560808493469459e+01  1.8448278413064603e+01  1.8372124947128292e+01  1.8332319506129139e+01  1.8328695389960316e+01  1.8360948754152076e+01  1.8428640107827114e+01  1.8531196337241862e+01  1.8667913246707815e+01  1.8837958606669858e+01  1.9040375696741897e+01  1.9274087329571167e+01  1.9537900339529582e+01  1.9830510518419509e+01  2.0150507978641311e+01  2.0496382922605378e+01  2.0866531795591097e+01  2.1259263797763417e+01  2.1672807729661297e+01  2.2105319144176825e+01  2.2554887776853445e+01  2.3019545225252052e+01  2.3497272847168485e+01  2.3986009846638868e+01  2.4483661515943627e+01  2.4988107601220577e+01  2.5497210758822291e+01  2.6008825069208058e+01  2.6520804574944641e+01  2.7031011809304733e+01  2.7537326281998695e+01  2.8037652888751666e+01  2.8529930211745292e+01  2.9012138678379930e+01  2.9482308546376025e+01  2.9938527683922015e+01  3.0378949114387432e+01  3.0801798296049089e+01  3.1205380108324469e+01  3.1588085517163080e+01  3.1948397893510727e+01  3.2284898960127208e+01  3.2596274343500838e+01  3.2881318709156183e+01  3.3138940460290094e+01  3.3368165981387342e+01  3.3568143410255431e+01  3.3738145923771633e+01  3.3877574524545224e+01  3.3985960317658396e+01  3.4062966268652154e+01  3.4108388435960592e+01  3.4122156673060218e+01  3.4104334797683784e+01  3.4055120227539433e+01  3.3974843084071210e+01  3.3863964767884582e+01  3.3723076011535170e+01  3.3552894417430004e+01  3.3354261490612217e+01  3.3128139178182650e+01  3.2875605929048533e+01  3.2597852289573268e+01  3.2296176052522171e+01  3.1971976978454279e+01  3.1626751110388231e+01  3.1262084704168181e+01  3.0879647798465133e+01  3.0481187449764391e+01  3.0068520659007021e+01  2.9643527017764832e+01  2.9208141102931268e+01  2.8764344649900263e+01  2.8314158535076881e+01  2.7859634599315068e+01  2.7402847344505304e+01  2.6945885536036137e+01  2.6490843744227195e+01  2.6039813858074577e+01  2.5594876604762732e+01  2.5158093108379028e+01  2.4731496521118412e+01  2.4317083759985998e+01  2.3916807381597341e+01  2.3532567627139720e+01  2.3166204668895901e+01  2.2819491088947419e+01  2.2494124619769082e+01  2.2191721175405952e+01  2.1913808200789813e+01  2.1661818365511063e+01  2.1437083627017088e+01  2.1240829686765345e+01  2.1074170861324824e+01  2.0938105388798345e+01  2.0833511189236873e+01  2.0761142095943036e+01  2.0721624572720025e+01  2.0715454930222442e+01  2.0742997052613966e+01  2.0804480643741059e+01  2.0900000000000013e+01  2.1029513315014192e+01  2.1192842519157843e+01  2.1389673654869767e+01  2.1619557786603696e+01  2.1881912442169195e+01  2.2176023580136974e+01  2.2501048075922682e+01  2.2856016717131990e+01  2.3239837696755345e+01  2.3651300590850152e+01  2.4089080805449981e+01  2.4551744475601179e+01  2.5037753797654748e+01  2.5545472774242445e+01  2.6073173349746934e+01  2.6619041912543558e+01  2.7181186138851089e+01  2.7757642151687048e+01  2.8346381967184438e+01  2.8945321199396421e+01  2.9552326993697530e+01  3.0165226157988823e+01  3.0781813460133389e+01  3.1399860059390360e+01  3.2017122039083716e+01  3.2631349007337690e+01  3.3240292732435620e+01  3.3841715779214738e+01  3.4433400112896209e+01  3.5013155636867339e+01  3.5578828631181523e+01  3.6128310058919993e+01  3.6659543708065428e+01  3.7170534137171032e+01  3.7659354393864731e+01  3.8124153476106059e+01  3.8563163507108442e+01  3.8974706595947680e+01  3.9357201357096045e+01  3.9709169063443113e+01  4.0029239408786921e+01  4.0316155857294035e+01  4.0568780559030934e+01  4.0786098812354282e+01  4.0967223055707720e+01  4.1111396373201494e+01  4.1217995500240306e+01  4.1286533317408662e+01  4.1316660822811592e+01  4.1308168575096914e+01  4.1260987601442835e+01  4.1175189766875789e+01  4.1050987603377507e+01  4.0888733599342032e+01  4.0688918952041732e+01  4.0452171787850112e+01  4.0179254857039318e+01  3.9871062712014115e+01  3.9528618379852929e+01  3.9153069541993631e+01  3.8745684235818516e+01  3.8307846094752271e+01  3.7841049145281303e+01  3.7346892181025929e+01  3.6827072735640797e+01  3.6283380677879023e+01  3.5717691453623992e+01  3.5131959001063819e+01  3.4528208366454749e+01  3.3908528049081170e+01  3.3275062105071868e+01  3.2630002040667762e+01  3.1975578526352333e+01  3.1314052963950132e+01  3.0647708939367213e+01  2.9978843594088524e+01  2.9309758948859770e+01  2.8642753213162695e+01  2.7980112114143427e+01  2.7324100278573646e+01  2.6676952701212368e+01  2.6040866332594710e+01  2.5417991818804303e+01  2.4810425425188352e+01  2.4220201175252768e+01  2.3649283235131804e+01  2.3099558573064165e+01  2.2572829922231289e+01  2.2070809074126618e+01  2.1595110528331475e+01  2.1147245523179677e+01  2.0728616470304097e+01  2.0340511814479697e+01  1.9984101338515877e+01  1.9660431931212038e+01  1.9370423834581658e+01  1.9114867384678426e+01  1.8894420258430291e+01  1.8709605236911855e+01  1.0699939109487612e+01  1.3156009005709594e+01  1.5550128899554599e+01  1.3359140325971795e+01  1.7448692721725131e+01  1.8267429692273964e+01  1.3419607082200280e+01  1.9021495931374385e+01  1.6784383999558518e+01  2.4726509807607552e+01  1.7293096947639174e+01  1.4039540015253706e+01  1.9554951690091890e+01  1.2814514011060954e+01  1.2329345560296327e+01  1.0986046431416998e+01  1.8915934763450750e+01  2.2678272851869522e+01  1.6368982772943955e+01  2.1904467021733854e+01  1.2539221149882056e+01  1.3749809330062268e+01  2.5814930344539096e+01  2.7434949998216052e+01  1.6917700362523966e+01  2.1759585646597518e+01  1.2926525142962562e+01  1.5283726590640384e+01  1.6211144104301358e+01  1.7544605913317792e+01  2.5585177458030344e+01  1.5375003243905301e+01  1.1327883271898234e+01  1.2101579442674995e+01  1.8314696947743140e+01  1.1325231956684734e+01  1.0787571086067704e+01  2.5199203368944378e+01  2.3247215094289224e+01  2.1098774796589982e+01  1.8541494873190675e+01  1.5013067716392960e+01  3.1705607412734711e+01  3.0559651296809061e+01  2.2376374658183266e+01  1.9848151980837397e+01  1.5022439522057605e+01  1.7458906500176052e+01  1.4498771802256568e+01  1.2186840283689099e+01  1.4361674447527239e+01  2.0210017268169171e+01  1.6877847660798995e+01  1.3232596187021871e+01  1.6559070436268833e+01  1.5716920692507856e+01  2.1705233643337962e+01  2.5326863123626929e+01  1.4880045478043744e+01  1.9577604012734458e+01  1.5903543549134371e+01  1.1841899985338804e+01  2.7120848221642742e+01  2.5984133779345697e+01  1.7784354277365303e+01  1.9974500493492130e+01  1.3646233335319387e+01  2.1226695321102991e+01  1.3308338954391626e+01  1.1698150691565560e+01  1.1897990173457060e+01  1.4200118693215527e+01  3.0763023456692316e+01  1.0920563545338135e+01  1.1904597415982721e+01  1.7716944842563002e+01  1.7930612349314583e+01  1.3046081471327099e+01  2.2919852977479582e+01  2.3341206435738460e+01  1.5501003772062484e+01  3.3495608291514557e+01  1.5164744992865801e+01  1.8719914615081329e+01  2.7578812095890871e+01  1.8522784748380840e+01  2.4375075152814336e+01  1.5549884516382281e+01  1.8849496356560255e+01  3.1536458345633587e+01  2.5488169980449136e+01  1.3240710128253829e+01  1.2083361022018151e+01  1.9730088789402966e+01  1.5049579458940427e+01  1.8864740421220741e+01  1.9435283565034588e+01  1.1678665783768905e+01  2.4960728484706298e+01  1.6558474436191922e+01  1.2263297262725425e+01  2.0955047104768145e+01  1.5735046172310753e+01  2.0394396744344778e+01  1.4910326238479568e+01  1.6624942407982179e+01  1.6307727830843039e+01  1.3857035596694955e+01  1.4268499231604316e+01  2.5473861196091843e+01  2.9575442773240681e+01  1.0942561982251668e+01  1.6061056765763077e+01  2.2343122085243365e+01  1.7190026947174033e+01  1.8536779966514633e+01  1.9711534151495162e+01  1.4392794180169705e+01  2.0183373045695316e+01  2.3052905899523978e+01  1.1479031620693341e+01  1.1882617101994921e+01  1.0655203818162883e+01  1.4906199776592757e+01  2.1385270735041225e+01  1.8645565193412107e+01  2.2821261464114666e+01  2.6710334344420339e+01  2.0918810638336591e+01  1.5048851014279412e+01  1.8749259934723671e+01  3.4460278283292510e+01  1.4681030230342728e+01  1.5058120346664067e+01  1.0976381219917329e+01  2.9380843649135048e+01  2.2604732271662954e+01  1.5511691595314280e+01  2.1767386324799272e+01  1.9220387660580254e+01  2.7074769299341000e+01  2.8497379305089325e+01  2.5654382706681108e+01  1.5087665943236900e+01  1.4719337466134727e+01  1.6021899415243478e+01  2.2079316610750919e+01  2.5213364692087676e+01  1.0943929393043057e+01  1.6860205466900489e+01  1.6839605140178659e+01  1.3287039473661917e+01  3.0850649850090903e+01  1.7142470382180178e+01  1.0640676918934217e+01  1.2677852607910049e+01  2.2132276205977885e+01  2.0184120240173037e+01  2.1681640677294425e+01  1.2937147459628957e+01  1.7492921909309349e+01  1.1275713599310562e+01  1.7659612472911352e+01  1.4231281545049653e+01  1.2551542351693666e+01  1.1439310259024737e+01  1.3014742930417114e+01  1.6756910769241948e+01  2.4622310214618910e+01  1.9650664975431891e+01  2.5861931878456808e+01  1.1459576432897697e+01  2.9374585636750858e+01  1.8230675997094913e+01  1.3141880686721684e+01  2.2849887367721379e+01  1.4241749213590813e+01  3.1411398255828296e+01  2.1541851995472449e+01  1.6813590673419657e+01  1.3458544042789452e+01  3.4225750677961493e+01  2.6444878135293429e+01  1.1514564671533249e+01  2.8868621610186043e+01  2.3987990411907489e+01  2.0917575421596403e+01  1.7369954038368725e+01  2.1390356202368618e+01  3.5985075538911602e+01  3.5937317055526037e+01  2.5936307984334317e+01  2.4124616980343085e+01  1.8007123457947586e+01  1.7677539405388263e+01  1.2345698064037293e+01  1.7058751663635316e+01  1.4015579390609537e+01  1.3020282646420636e+01  3.2069426191174685e+01  1.8512740530069621e+01  1.0540853126248265e+01  2.8382244226058543e+01  1.9060420735791933e+01  2.2687639838033967e+01  1.1509960197810269e+01  2.7625324689613734e+01  2.8922254143684793e+01  1.3895540062962386e+01  1.8167082606073201e+01  1.2677832188078137e+01  2.0753114143506075e+01  1.2738414159414427e+01  2.9088447801828341e+01  1.3209782329463733e+01  1.8319191990821853e+01  1.6645624618182193e+01  2.0003003030601686e+01  1.5533489085789704e+01  1.5205916695361511e+01  1.6934773687958085e+01  3.4674457666980452e+01  1.6723795219855528e+01  1.1807773841284734e+01  1.6357110958267434e+01  1.6382068871931121e+01  1.9331899444915930e+01  2.0682534282113789e+01  1.9355546362566013e+01  1.9497623726129106e+01  1.8473696604081049e+01  1.6368158028331436e+01  1.6682568540788175e+01  2.9496335067895401e+01  2.7395436354503083e+01  2.2390144081765580e+01  1.6340022925299944e+01  2.2430885413948570e+01  2.5493109911706103e+01  1.7301949097365267e+01  1.2056427902842691e+01  1.5555486983595914e+01  1.3379254515959202e+01  3.0621930562135855e+01  2.7405507437614837e+01  1.9620623718968321e+01  1.1576617581932840e+01  1.0942613058125264e+01  1.4286362954424378e+01  1.2466280403232144e+01  1.8597302108311997e+01  1.3294824847885964e+01  1.4164093642517610e+01  1.5408097249683895e+01  1.0680955271254662e+01  2.2442897436827916e+01  1.2166097637278753e+01  1.4726761607104839e+01  2.5783406109714136e+01  2.4383116430012951e+01  2.3887649432439176e+01  2.0947145066238573e+01  1.6085429933822912e+01  2.2416355162863709e+01  2.4347993412429133e+01  1.7876919834959111e+01  1.8386877304517039e+01  1.8983530224285232e+01  1.7400388437219615e+01  1.9432339408825481e+01  1.9708021533017423e+01  2.0353687443769015e+01  1.6145761987687024e+01  1.2718035784289317e+01  1.1039187366139364e+01  2.9356693342779945e+01  2.8670856056290255e+01  1.6786122275634224e+01  1.4440999230466474e+01  1.4742217529394694e+01  2.7822062040491129e+01  1.1785232778962309e+01  2.4173322532233016e+01  1.7651001838918859e+01  1.1158415378007556e+01  1.8672475284480669e+01  1.2793776290300428e+01  1.7179077940118432e+01  2.4173564807699140e+01  1.7711340748825062e+01  1.9547166371310674e+01  2.8653373668004864e+01  1.4641004176546845e+01  1.3755615987932137e+01  1.2502805979667665e+01  1.7724658554854820e+01  3.5814280580865230e+01  1.3761921404732263e+01  3.6042570994860824e+01  2.8714537991661732e+01  1.4421104117697785e+01  1.1550188265703952e+01  1.4269319082124527e+01  1.5106541643274600e+01  1.9271886882649873e+01  2.5748919611542398e+01  2.3511104743832650e+01  1.4959542230963816e+01  1.3956546867448081e+01  1.4760000759554140e+01  2.3766632116378098e+01  1.2457608773564658e+01  1.1921861094603406e+01  2.0618124426971189e+01  2.4394669903370790e+01  1.3138022119278158e+01  1.5672895368358486e+01  1.4081591966496664e+01  2.8496973743497403e+01  1.2066647401734803e+01  1.5121177393259876e+01  2.2332596599185862e+01  1.2667810693284441e+01  1.4135483543981740e+01  1.3652082088925409e+01  3.4005194614845593e+01  1.3461042610776625e+01  1.0844286909387062e+01  3.2551720844359330e+01  1.6158282240386196e+01  2.0499145313900382e+01  1.6499915030372463e+01  1.9807365324709824e+01  3.0338737458940404e+01  2.6895411440356810e+01  1.8922296582321465e+01  2.2687300991038018e+01  2.4903005462278280e+01  2.6070896177218664e+01  1.1350949210241334e+01  1.1423776195916714e+01  2.2350479625115302e+01  1.9796878307757307e+01  1.3950272147660783e+01  2.2279682107140012e+01  1.9956125080359232e+01  2.1794399758331647e+01  1.5450196797134245e+01  2.2381877524342766e+01  3.3488009361255244e+01  3.4894547077452799e+01  2.3626318557232590e+01  1.7401546906356455e+01  2.2612147678291610e+01  1.3726877209392255e+01  2.7708453173561995e+01  1.7178659454376273e+01  1.6144567850176770e+01  2.1272696226397276e+01  1.1093165389836154e+01  1.4085477955531442e+01  1.6514130830766959e+01  1.8012131845877999e+01  1.5485108053157512e+01  1.4715052981997232e+01  1.2672948287069991e+01  3.7073592480033064e+01  3.2554121102516930e+01  3.0325663596604880e+01  2.4126409125124585e+01  2.1476155111670263e+01  2.1137109349026250e+01  2.4576146879775234e+01  2.3270611431941340e+01  1.3508161879972464e+01  1.1029589597460896e+01  1.5120260717850400e+01  1.3122476875488642e+01  1.9431296702167430e+01  2.3897449912675306e+01  1.8230287734545861e+01  1.9778746585219782e+01  2.9696959068178941e+01  1.3451394871087656e+01  2.0553985347640030e+01  1.7524829438739584e+01  1.9138443737799747e+01  1.7411376414769308e+01  2.6632300745372618e+01  1.7049537710243357e+01  1.5679664369401440e+01  1.4343985581380645e+01  1.5338616761161269e+01  1.3028079333550874e+01  1.1939546216721329e+01  1.1779412392894390e+01  1.2192661569819311e+01  2.1304309314176844e+01  2.0439372068983538e+01  1.1839434908702184e+01  1.2642421664964505e+01  1.5813516084172539e+01  1.7290676370640295e+01  2.0927649216141408e+01  1.1431563005005131e+01  1.8331531319977699e+01  1.7018019468361778e+01  2.9213049964239818e+01  3.0495715752522639e+01  1.2583255851946493e+01  1.6461485091471051e+01  1.6618291159735382e+01  1.4825863503878821e+01  2.0487185965973424e+01  2.1916068607664986e+01  1.2330486847048373e+01  1.7235265526518763e+01  1.4602863800337300e+01  1.6691991926632745e+01  1.6707399100789889e+01  1.5429554977300539e+01  1.1696301027420050e+01  2.2091102669697900e+01  1.8000256241280983e+01  2.5275211556185674e+01  3.2582003331511416e+01  3.1346114874735434e+01  2.0136433584812448e+01  2.2929586212233176e+01  1.6006332683405461e+01  1.7259988558696804e+01  3.1105503815810497e+01  1.0791055949904610e+01  2.5183212822260700e+01  2.6245332015722454e+01  1.8971783442274855e+01  1.3791544194060014e+01  1.4452172011037677e+01  3.7449061770828948e+01  1.6230223377290095e+01  1.7098084160286664e+01  1.2688375309461714e+01  1.3471175153375361e+01  1.1257377366362551e+01  1.1124860072558700e+01  1.3977342459648566e+01  1.9741170653470832e+01  2.0331670347945099e+01  1.0791320859668886e+01  1.6124850331281888e+01  1.5091823854245602e+01  1.5342072875068352e+01  1.7359518234558095e+01  1.6056117174402186e+01  2.1530944623627256e+01  2.2199945558598948e+01  1.9282991185745530e+01  1.1608318909606790e+01  1.4911361977652025e+01  1.2949374888113024e+01  1.5542535395903736e+01  1.0636753592203934e+01  1.8475553930379863e+01  1.2049487879109552e+01  1.1253211272313584e+01  1.8895094065609086e+01  2.4225884028745096e+01  1.9666792426846474e+01  2.7864132040809885e+01  2.5365857936193020e+01  2.4992578869187504e+01  1.9010942507222289e+01  1.9504351346293600e+01  1.4128708678651886e+01  1.7419190152147024e+01  2.2441339185695583e+01  1.1122249238532861e+01  3.0054355707191132e+01  1.1037755124107216e+01  1.2667792241292750e+01  2.8209048974860369e+01  3.1058232698784927e+01  2.7306866290714403e+01  1.6793894673345463e+01  1.5986656355765048e+01  1.3650090460545186e+01  2.8015747998422441e+01  2.5859009386248168e+01  1.2001637208259051e+01  1.0578705187112813e+01  2.3710391397554258e+01  1.5473683773966517e+01  1.4984670907534548e+01  1.7230924434239970e+01  2.1647418339291448e+01  1.5682992633400243e+01  1.9214415799600552e+01  1.7932176793266187e+01  2.0511163492567849e+01  2.0723773949767196e+01  3.2740669526267496e+01  2.3628442907578584e+01  1.3526359217071244e+01  3.2617703096036067e+01  2.6765965250620948e+01  2.4223338112006083e+01  1.5937213011388559e+01  2.0812101545050041e+01  1.8723448856945563e+01  2.1279179173765467e+01  2.0957907012342968e+01  2.3936601332171019e+01  1.4011601321069717e+01  2.8349105881928971e+01  2.2809308914629174e+01  2.0580685495466255e+01  2.1056774655519742e+01  1.3714310040641408e+01  1.4751291475841340e+01  1.5006570450106926e+01  2.0394475629903351e+01  2.9917112602927464e+01  1.7623990688735159e+01  1.9615372535601946e+01  2.0837759119594590e+01  2.7025838176123354e+01  1.8078692977068201e+01  1.7804658769564522e+01  1.8238896240607218e+01  1.9214034868448714e+01  2.6055012808739320e+01  1.9585226258908470e+01  1.8755716147638839e+01  1.3641566698118645e+01  1.6140631643549426e+01  1.5656778052584071e+01  1.8259795029861650e+01  2.6514716749754005e+01  2.5896046163073439e+01  1.7800922741186032e+01  3.7253204623610380e+01  2.7030440273438352e+01  1.1279814832845886e+01  1.8655915347421224e+01  2.9597667963059148e+01  2.2502438439478365e+01  2.4987010020334285e+01  2.3414555233536845e+01  2.4306219851377577e+01  2.0083143948498986e+01  1.8561629389531195e+01  1.4041285763589116e+01  1.0798088580758021e+01  2.1042002378839630e+01  3.8032514269387768e+01  1.2411272692784994e+01  1.2452312506406974e+01  1.5079667439933452e+01  1.5714954827245165e+01  1.8037190006677793e+01  1.7331960247471578e+01  1.0768257123433687e+01  1.2062701634513303e+01  1.7820838619696687e+01  1.0654659382108083e+01  2.0429681228698282e+01  1.2717034244505896e+01  1.2567212552195924e+01  1.3648407242150070e+01  1.7529835223982378e+01  1.8376478297768511e+01  2.3810955198053680e+01  1.2143532527651415e+01  1.8609298696665586e+01  2.0827772541291235e+01  1.5004565472664780e+01  2.0000542339619361e+01  2.7583416809911867e+01  2.6886178349582845e+01  1.4737937980312584e+01  1.5456866198073534e+01  1.5653193908367180e+01  1.5391804528852782e+01  1.4336578091506897e+01  1.0757481616945613e+01  1.7859568366327885e+01  2.6900564436829949e+01  3.0180423177942032e+01  1.3827814656209799e+01  2.8089539127064359e+01  1.2467889711420366e+01  2.0702563454958547e+01  2.4069761089000700e+01  2.4413443655662721e+01  1.6483425271305567e+01  2.1705575781891547e+01  2.5290580076491050e+01  2.2302646536982063e+01  1.4854164223078605e+01  1.4845291420608170e+01  2.0188414676452396e+01  1.2901672300235973e+01  1.7228746168269275e+01  1.4803125774479083e+01  1.7062739584945181e+01  1.3890312520842924e+01  2.3980674620870676e+01  1.5360662534507291e+01  3.3082600025647025e+01  1.5194286728889921e+01  2.7138593588772732e+01  1.3960015114689918e+01  1.0602463519054554e+01  1.6446942293957612e+01  2.3075427848204232e+01  1.2882864503302734e+01  2.6001202222850267e+01  2.5845243572538571e+01  2.2664366825396367e+01  2.9387617759692525e+01  1.6432227696443487e+01  1.6053145002952213e+01  2.2832606996565914e+01  2.3538551394362031e+01  2.2976848583059173e+01  1.1399700406418340e+01  2.8001635999088538e+01  1.1110616629034265e+01  1.0831355550044067e